LAMMPS data file via write_data, version 22 Jul 2025, timestep = 2050000, units = lj

7000 atoms
1 atom types

-10 10 xlo xhi
-10 10 ylo yhi
0 60 zlo zhi

Masses

1 1

Pair Coeffs # lj/cut

1 1 1

Atoms # atomic

963 1 -4.753891305931884 -4.887586440830496 1.397053713239896 -1 0 0
698 1 1.628093635211483 -3.37481669972165 1.3185274652309287 -1 -2 0
6885 1 7.2750826803583015 -3.25779544013754 1.411861100560521 -1 0 0
6086 1 -4.302696644709677 0.6442280595644825 1.4247983855990043 3 0 0
3859 1 -5.185344274355781 1.9111366355314447 1.386779287786446 1 0 0
2222 1 -4.303877717970746 6.15405372091438 1.3980720499563704 0 -2 0
2330 1 3.847977993383273 6.518898074306741 1.3842738529043344 -1 -4 0
429 1 7.325602264439912 8.741431420523137 1.402383838885839 1 0 0
6896 1 -8.868009681876094 -8.999184285796588 1.521307704613467 1 2 0
647 1 -8.594715543172962 -9.82575299202539 2.5004889489174387 -2 5 0
1963 1 -9.505839373335006 -9.060728612413016 2.7286508446455615 0 1 0
6091 1 -7.647313581316557 -9.684413757257625 1.9662332061616095 -4 -3 0
3196 1 -7.494971809490741 -8.615774450238577 2.531130048065504 0 8 0
4586 1 -6.667473832747119 -9.016882536408026 1.7914513729495152 6 -4 0
2316 1 -4.799306357464374 -9.608453767042693 1.5781567498685498 -3 1 0
5363 1 -4.631384359366172 -9.924782957921186 2.5720697879990246 2 3 0
5364 1 -4.345078017792129 -8.882173090703033 2.58301553156553 2 2 0
4463 1 -5.6764952058889 -9.94184433880085 2.3544702532021065 0 1 0
6746 1 -3.4532556666654664 -9.332822167324602 2.41773164506343 -1 3 0
3383 1 -2.3992718694716726 -9.292587590452776 1.7637177608168113 6 2 0
4295 1 -1.643479268193978 -9.869563079136068 2.6227325268915105 3 0 0
2614 1 -0.46211650588191117 -9.98886752791868 2.671884071518975 0 3 0
2911 1 -0.02862841913890046 -9.192898219771529 1.860191018194352 2 2 0
541 1 1.549633959925343 -9.52828856024138 2.179095056506301 -8 1 0
1154 1 4.127056515768221 -9.702053663832524 1.6388883142902686 -1 1 0
1729 1 4.583005909815241 -9.144077322931139 2.409143007467354 2 -2 0
4348 1 5.808243443618049 -9.438079823141633 2.2596709445428806 -1 2 0
969 1 8.031431900524687 -8.820456801893028 2.544363563339638 -4 -2 0
2251 1 8.105234179573072 -9.434753107612096 1.5828014206213399 0 -1 0
4523 1 8.266647309117507 -9.982544506929662 2.521209764636047 0 -3 0
242 1 9.79812042852592 -9.37632845573381 2.0476689036145657 3 6 0
3207 1 -9.526780031764558 -7.869694276988398 2.1757367064826805 1 0 0
927 1 -8.21859306870468 -8.102424481790008 2.0142002707761932 -3 2 0
6360 1 -7.438658288307139 -7.370865344199261 2.8255863191522863 5 6 0
3678 1 -6.476881793794678 -8.18837912532099 2.674815571171665 3 4 0
782 1 -6.987993614831683 -7.585045719480757 1.7814703863250565 4 3 0
1410 1 -5.1999356687635965 -8.477927966516816 1.7201297461965865 0 4 0
4322 1 -4.648366802099435 -7.351695559048881 2.1247877742791688 1 3 0
5393 1 -5.42553436767902 -8.541583388636314 2.6572997965957827 0 4 0
3996 1 -3.3280279141307476 -8.330074029670351 1.4597739823036846 7 4 0
1418 1 -3.56371333662403 -7.586861665119497 2.662653804112561 -3 -3 0
5158 1 -2.7531155835867644 -8.35626189522989 2.263841343731753 -2 -1 0
4994 1 -2.476903651547502 -7.333616585181677 1.7785442948920818 4 4 0
1174 1 -1.511671858573744 -7.857603044649635 2.6022361121082356 2 3 0
5912 1 -1.04444895208922 -8.502627056904998 1.889542129633595 -1 5 0
5850 1 -0.006705799501274234 -8.205407320610187 2.503487947166233 -4 0 0
1233 1 0.7292303450518535 -7.520328425997621 1.6369897143535859 3 0 0
4930 1 0.9743033936383695 -8.337659022922889 2.473722216235262 1 -1 0
4898 1 2.845312217628209 -7.7266931298312125 2.5980103290287535 3 1 0
774 1 3.772739554892478 -8.007391115076251 1.66300849609269 1 -5 0
1152 1 5.125730383049499 -8.208012118590768 2.082755674718102 -2 -1 0
807 1 4.531761951253595 -7.445773794371293 2.484510534925854 -4 0 0
5052 1 6.266894574162942 -8.049813564997358 2.02938991058547 3 2 0
5886 1 7.221451899821214 -8.540977864910621 1.804585854821895 5 2 0
6578 1 7.774956866519786 -7.562000429179943 1.8211659121465569 -1 1 0
1951 1 8.98647098332547 -7.995419068094653 2.5189649997051475 2 0 0
2936 1 9.476495611330025 -7.156408755908752 1.7848726208690082 2 0 0
980 1 -8.800000064289842 -7.127582149589111 2.64359193371616 1 1 0
5322 1 -9.661354592924967 -6.1375503784959555 1.8786610009426965 1 -5 0
2151 1 -8.658899812457951 -5.820146940958615 2.2124440038685207 4 -2 0
6652 1 -8.13595046975983 -6.959778818414429 1.8014592427851783 -3 -1 0
4612 1 -7.081481878793568 -6.370159901098185 2.1925751578035286 4 2 0
1021 1 -5.330895328111337 -6.440980920145585 2.6537189584201633 -2 -1 0
2235 1 -5.1185962961153075 -6.130568160927893 1.6667009418864092 2 -3 0
4893 1 -3.4962433353848 -7.064211790205181 1.5032909093649087 -3 2 0
7 1 -2.8905707536167475 -6.173403886803792 2.2010947783239168 -5 -1 0
1582 1 -3.77915700183266 -6.105679249547182 2.6917224487734166 -1 5 0
975 1 -4.028234753048475 -6.153492487389378 1.4913729628517094 1 -1 0
3373 1 -1.8041933102602434 -6.741291615535148 2.6966910413745273 3 2 0
6800 1 -0.9825450418219575 -5.83217437894393 2.591886535898265 -1 2 0
1736 1 -0.9936984523112707 -6.961766591509524 2.0744027818533217 2 -3 0
232 1 -0.12121152128325527 -6.219219379926175 1.8323154311598848 0 3 0
6557 1 0.8953594845769757 -6.283948304448618 2.391421511468829 -3 5 0
3176 1 1.5090054818917937 -7.137651594260642 2.1313571889337286 2 3 0
2590 1 1.7973124341514684 -6.103060306890588 1.6011948740598025 1 0 0
168 1 2.4231441800892566 -6.5901387849940525 2.701159144509675 1 4 0
2052 1 2.9581332451013194 -7.0303247543908025 1.774201723881842 1 -3 0
4921 1 3.21405441306657 -5.838303604436583 1.81043306887049 1 2 0
2203 1 4.351084374742497 -5.937742749394349 2.136022012153802 4 0 0
6534 1 5.177214809927488 -6.738130148302693 1.910468887715339 0 0 0
2530 1 5.448821816734539 -5.790524624757657 2.3240599990963706 -3 1 0
6643 1 6.231090953046193 -6.747159748818657 1.7431007191891799 -1 -1 0
1917 1 6.5639428668902875 -5.782400323437544 2.6827926489623253 -2 2 0
5919 1 7.50900612520045 -6.583540227582343 2.4451929514387163 -2 3 0
3667 1 8.54977867026694 -6.8345431638940495 2.38582662506685 -1 1 0
2017 1 9.388408483104694 -5.879788602125876 2.5144119625074453 -6 -1 0
1196 1 -9.627733074466889 -5.371446695984436 2.691089986845812 -1 2 0
121 1 -8.856661610984187 -4.744736125885462 2.4703247058543205 1 -1 0
2540 1 -9.589265419679535 -4.899714336929508 1.7665737459281807 1 -1 0
3783 1 -7.273829552022903 -4.695048226189579 2.7824606180151954 -4 -3 0
2073 1 -7.09998747759742 -5.3786273769500115 1.894235212058842 -4 -2 0
5235 1 -5.936036892345496 -5.708681085329074 2.1716794312063485 -1 0 0
3794 1 -6.021002235621173 -4.587840443666888 2.7011602608462897 3 6 0
3045 1 -4.317587284446857 -5.448943628419695 2.1514716202631106 0 2 0
6415 1 -5.157720867374484 -5.314921426168078 2.808232500365116 -3 1 0
6382 1 -3.288772183949565 -5.25955433696085 1.978018834090173 0 5 0
2788 1 -2.0376361149407964 -5.4985348419305895 2.445377379149435 0 -1 0
5427 1 -1.2166054225341179 -5.446604652377519 1.6352616346311437 -5 -3 0
3209 1 -0.39885834478397664 -4.852878442113244 1.9208209759108041 2 -4 0
5206 1 0.7079899275622926 -4.926426310900833 2.006478325696129 -5 2 0
6018 1 1.680810782518703 -5.224009761062962 2.377983386158303 2 -6 0
398 1 2.348718979760021 -5.1922545079936135 1.523364496233654 -5 3 0
3382 1 2.587674446536936 -4.412606218252852 2.302852326919072 3 3 0
1671 1 2.773004395201703 -5.586370486825726 2.729065952604666 3 2 0
2165 1 3.9580577611271135 -4.537211455334044 1.7528836792905176 8 4 0
4100 1 4.671876021691724 -4.9111076896853465 2.55063115531457 1 0 0
1870 1 5.651659087978311 -4.537597865061783 2.3792422134311813 3 0 0
5871 1 6.091792942801116 -5.109581159769383 1.5459579501310445 9 1 0
2720 1 6.922616399016584 -5.674138520068763 1.7454425893015606 1 3 0
6805 1 6.799674919639494 -4.565480156089716 2.431132135571751 4 -3 0
283 1 7.15265963656821 -4.535951145758133 1.4548738680377549 -1 -2 0
5664 1 8.28327384954336 -4.451310748891409 1.5453099530544803 -1 0 0
1462 1 7.792275402011802 -5.078043827220536 2.1273617123651243 -3 5 0
4327 1 8.699187666665207 -5.68584267952254 1.6932040413297973 4 8 0
6139 1 8.741786946751738 -5.061579926069731 2.6187645276273765 5 1 0
5321 1 9.314915933837067 -4.4653241103401 1.8331180349723495 -2 0 0
831 1 -9.223070659194057 -3.0429789424786495 2.036886020955395 -2 -1 0
4318 1 -9.60926345352252 -3.8997767764613442 2.4153235814009193 0 0 0
6330 1 -7.6228030742041 -3.6259241636617965 2.855654149749836 0 1 0
1355 1 -6.725775904950295 -4.080978929013437 1.8663574749440663 -6 -3 0
889 1 -7.114757594595998 -2.990732617024298 1.5878982035716251 6 -6 0
4376 1 -6.007559446658928 -3.240978278463595 1.8000681342100413 5 -1 0
6949 1 -5.559500029001705 -4.271937067605496 1.69135082126163 -2 -4 0
6162 1 -4.412552735565622 -3.285836255892979 1.5001321597321422 -2 -3 0
833 1 -5.608326469526075 -3.132476530906834 2.7602112918182984 -2 -1 0
1100 1 -4.689454571250982 -3.83195887491788 2.4340369949291225 1 1 0
6855 1 -3.777231821067789 -4.274979453197818 2.0682842127087495 6 1 0
4480 1 -3.488505633395627 -3.0883734262918776 2.07593686723408 3 -4 0
6350 1 -2.9693927735681536 -3.9895229225641087 2.716930687914471 3 -3 0
4209 1 -1.770245029170306 -3.200094328107269 1.5713334681531492 0 2 0
997 1 -1.5887335406124707 -4.036325519626576 2.2949411585984048 2 1 0
4556 1 -0.6148984815956021 -3.2838135546241767 2.130133094953325 -1 -3 0
4417 1 0.48856356734395434 -3.7704689173709673 2.0604746220982073 5 1 0
6973 1 1.4161404694530404 -4.15224561510987 2.014400760877685 6 -2 0
1209 1 0.5252932070846986 -2.8609204505288854 2.505784043832243 -1 0 0
6236 1 2.5663594209815788 -3.557999836146543 1.7526116662201656 2 -1 0
6263 1 3.2316899319352355 -3.6311276904460223 2.6970287262555264 1 -1 0
5011 1 3.7742982700956103 -3.5985505987353346 1.4472622594133822 -4 -2 0
5549 1 4.830908823968058 -3.9421192861961294 2.0244422612851514 -3 -4 0
2542 1 5.584180744607314 -3.2765896777603407 2.2646047535020783 -1 -2 0
2268 1 6.236008451624836 -4.017731302591084 1.5601255630825548 1 7 0
6503 1 6.595996821040677 -3.4931759671737765 2.426458320677419 0 2 0
4136 1 8.405242207169369 -3.1170370919070987 2.8331913082650635 0 -5 0
5916 1 7.795461330713533 -3.878659835538797 2.3504252038021467 -2 -5 0
6951 1 8.667788793767919 -3.5430382733581633 1.7447614441602846 5 2 0
1700 1 9.555386685483914 -3.2726073549920263 2.502551252975117 0 1 0
6112 1 -9.690615373450449 -2.3765633440312164 2.8537063398157487 -2 0 0
1810 1 -9.473280997028066 -1.8561725955047124 1.7559990650083124 1 4 0
4178 1 -8.597002579563913 -2.468962024343931 2.680692127674036 -1 2 0
1332 1 -7.872783702606173 -2.2052383879337087 1.8815944271180005 -2 -1 0
6398 1 -6.743686346096332 -2.822657510873772 2.7513229313446166 0 -4 0
664 1 -6.6104088943526955 -2.129847141297593 1.9897267513210157 -1 1 0
4697 1 -5.059603795632785 -2.6004338911947786 2.1179687654409944 1 2 0
6381 1 -5.566305110119399 -1.745790201595644 2.6898134753765053 1 -2 0
399 1 -4.034948316371225 -2.376660034383416 1.6098264188018245 2 0 0
1782 1 -3.574081229474143 -2.2887614387753468 2.69957630672445 -5 -1 0
3687 1 -2.449749051973946 -2.7944718577989893 2.400443984934818 5 -4 0
4646 1 -1.7824114882214546 -2.088263629699684 1.9628342023479566 -6 0 0
1967 1 -2.624622038636222 -1.6645738308764668 2.7198697319189074 -3 -4 0
2779 1 -1.3713824414190263 -2.8113371813619334 2.855196225566195 1 -2 0
4326 1 -1.4101029281522945 -1.5221678629351179 2.7149296313628946 -1 -4 0
478 1 -0.6823251047714693 -1.5363609322329075 1.6190230236884242 1 0 0
2957 1 -0.3265663941808921 -2.031470548627502 2.6826128451041518 -2 -3 0
5832 1 1.1813258261651234 -1.760308677657142 2.63469671427218 -1 3 0
5957 1 0.8393124518628773 -2.2658187148123994 1.6560993413052023 -3 -8 0
3728 1 1.756364749935394 -2.5074345803889693 2.197972439524793 -2 -10 0
2293 1 2.8421429062918357 -1.4758736962820587 1.6964222696249178 -1 0 0
236 1 3.4697911510197206 -2.2512164513082835 1.7403304555852044 0 3 0
2031 1 2.8990424980468665 -2.645667475199388 2.7510918445782395 -1 -2 0
1492 1 4.881785402248316 -2.4595224188315408 2.4860807548049246 2 0 0
6872 1 6.335820878670622 -2.3578446402444313 1.7686289119758718 3 1 0
5990 1 6.082319948184588 -2.364958142773066 2.7328699857872323 0 0 0
5386 1 7.3611339479742215 -1.5566395161800346 2.079435998620786 -4 -4 0
5261 1 7.273164517323702 -2.5984943163916148 2.440691519167374 -4 2 0
4268 1 8.135510409146947 -2.591629960965074 1.7136029453928168 1 3 0
4527 1 8.141757807365792 -2.034627200792696 2.5227881735176387 3 3 0
5023 1 9.678814895886722 -2.8404154095611656 1.4844471458833528 3 7 0
3990 1 9.119714217418917 -2.2166886667966685 2.195484843743422 -1 -4 0
6948 1 -8.86025224280546 -1.3608666375380456 2.572477746934806 -3 3 0
4623 1 -9.90481766122508 -1.3675463799255683 2.6543400981653926 0 -1 0
6841 1 -8.525823166900562 -0.5400515577925652 2.0503566977438608 4 2 0
6011 1 -7.440430804137251 -1.119645900262488 1.8478885712623019 3 0 0
3306 1 -4.912659563937346 -0.969591699108547 2.5149556656804295 2 -5 0
2964 1 -4.5975701387334365 -1.372777634037967 1.4843383797278022 2 2 0
3550 1 -3.506517614854404 -1.3254033970448373 2.3226389814279313 -2 -1 0
6813 1 -2.8688180795368687 -0.11164922233623965 1.8411264069703996 -2 8 0
5757 1 -4.111315794350931 -0.4140912871792068 2.1064102512053 -8 8 0
6005 1 -2.6228508435724835 -1.1618214167888878 1.759160344508406 0 0 0
569 1 -1.492009632818076 -0.7585426466944937 1.9963129899099463 2 7 0
2189 1 -0.3647273663913649 -0.5180724548222643 1.8038593572249062 0 1 0
4880 1 0.40253158684515583 -1.3059854793383499 1.6308097389441247 4 1 0
3732 1 0.8894168272570052 -0.38872237876482924 1.6282320948811013 -2 2 0
4453 1 1.2805653965292207 -0.6661464660618459 2.8301635245620416 -3 0 0
3754 1 1.5471312157262032 -1.2623748995738753 1.682932635307198 1 -3 0
4278 1 2.2008516210264433 -0.30966025157137944 1.7717389436913076 3 -1 0
3746 1 2.2406872169593415 -1.2310116331652263 2.512614165267994 -4 0 0
6366 1 4.105290947671337 -1.229322161997714 1.485847737571118 1 3 0
1092 1 3.4171122405423144 -0.8187799498851409 2.27312835777684 -11 3 0
3193 1 5.187253645017047 -1.1716839389606741 2.059449783380553 -3 1 0
6194 1 4.387784477320507 -0.19302385772774305 1.9032763328409192 -3 1 0
1678 1 4.3105922229989035 -1.372518019974658 2.544827795488857 5 5 0
4162 1 5.8371543839051805 -0.9904869028257035 2.8032799934143537 -2 -3 0
1732 1 6.768777947111993 -0.34718654268136734 2.7224940010673 -1 -6 0
3632 1 7.151333504295025 -0.2880690819814899 1.8270860474836568 2 1 0
5441 1 8.052390307270745 -0.17891010093927862 2.685062747300136 -1 3 0
3084 1 9.961728631900778 -0.959157028969813 1.6408683690713892 -3 -4 0
4081 1 8.877175517304748 -0.5349635612400356 1.7189069600071332 0 1 0
4337 1 9.652702541792948 -0.2207717804589035 2.390537241185827 1 0 0
2758 1 8.961724423457158 -1.0507850753599424 2.771238191557585 1 -3 0
1997 1 -9.467240527141144 0.18010559487697778 1.881487085840418 4 -1 0
60 1 -8.868208637684283 1.3480108433950135 2.1607478869542898 -2 -1 0
6152 1 -8.185021990673382 0.3976470419025941 1.9223863677792512 0 -4 0
339 1 -7.33138713363614 1.0251973229996427 2.77731496373304 -4 -2 0
6146 1 -5.72869463598609 0.026955377679979367 2.6007722786799614 2 -2 0
5984 1 -6.587519816405419 0.6344053717693519 2.1750162040684744 -3 2 0
3672 1 -5.1758201506430455 0.9751260564320071 2.3402036100771544 7 -1 0
5220 1 -3.8067688795754933 0.9585925825086824 2.4987210223176683 -3 -1 0
1340 1 -3.0435283053274005 1.0765205240048918 1.6538431987336186 2 0 0
3620 1 -1.7916164775968915 0.3524426119714889 1.621086111165598 3 -3 0
5469 1 -2.678636977453714 0.7482266711376033 2.5458174775622457 -2 -8 0
5506 1 -0.9470846760804255 0.32121702127546203 2.2914417364650728 0 -2 0
6674 1 -0.5474951976044574 0.9308617371300332 1.5077007599384036 4 1 0
3863 1 0.8542175444634835 0.2730642047859954 2.696653784736684 0 3 0
1244 1 0.38742828634475207 0.5834585201970693 1.8518103896474714 3 -1 0
6998 1 1.4788988294833578 0.512972025297505 1.6542288260788753 -3 -2 0
719 1 2.5295411367357965 0.6770972568430202 2.218527799666054 3 2 0
349 1 1.5005187848973558 1.154751993533253 2.6156781049722033 5 8 0
4508 1 3.5654302842199432 1.3818369763990548 2.6820840044310588 -1 2 0
1734 1 3.540668875566584 0.4012713783888555 1.7886839946307143 0 -6 0
1503 1 5.693299887547007 0.08430885989532937 2.279338417703079 -2 0 0
5552 1 4.67661036074289 1.3615298576850015 2.507679815550466 0 1 0
4516 1 6.772625918106081 0.7259821222355749 1.8611813131285828 4 3 0
1654 1 5.825864326794546 1.2511667528371935 1.8217285906639884 4 -4 0
3433 1 6.153319124578275 0.9020080739587079 2.7103939916704545 -3 2 0
2539 1 8.002755497731709 0.33791086576307955 1.7419271669877694 3 -2 0
4986 1 7.783674502555392 1.3921058651935834 2.2010930088216814 0 1 0
2973 1 7.268474630194766 0.6349051343395387 2.806812681202354 0 2 0
1411 1 9.82696013270784 0.9144296807410877 2.2748608875626553 1 4 0
4192 1 9.09939735720453 0.6185151795574462 1.4735091522185182 2 5 0
672 1 8.745416852720346 0.5263883915319232 2.5460643592114875 -3 0 0
6473 1 -8.914256104821872 2.455346184716105 1.679541006295331 0 3 0
179 1 -9.496939438771975 2.125933705970479 2.69434553756735 -1 -1 0
688 1 -7.892129344036129 2.189541964862039 2.7796420840483558 -2 2 0
2784 1 -7.344626224787873 1.6738243382909623 1.8257248645299484 -1 5 0
2324 1 -6.346642699735433 1.7974294980757681 2.0574669825200527 3 6 0
4049 1 -6.832644185593751 2.6896427828962683 1.836100328681091 4 -1 0
5390 1 -6.313537448581869 2.8183995425361115 2.779672110365019 3 -3 0
665 1 -5.61339527372446 2.6389177492449067 2.0456358434670325 2 -2 0
1270 1 -4.42139215075348 1.7211485528087036 2.2600709594222446 1 0 0
6153 1 -5.495395229309311 1.87733941311586 2.755143058308126 0 -1 0
6728 1 -3.3825027317994643 1.9316478109190158 2.4034592096828726 2 2 0
200 1 -3.738579340972699 2.6483854082892466 1.467624936158717 1 -3 0
2061 1 -2.4827475613262906 2.4367316416976403 1.7733159604433855 1 -2 0
4101 1 -2.200826677242604 1.668548738274306 2.5188675793097723 6 1 0
4891 1 -1.4006670311254488 1.7017155551272136 1.5971590915721847 6 -4 0
522 1 -0.6723311878767914 2.7692305767300085 1.674313411329819 -4 -1 0
3897 1 -1.155968515731885 2.3107978159057474 2.4976027375805856 -3 0 0
6082 1 1.3685695526029735 1.6802255760967522 1.574412522585358 1 3 0
4240 1 0.5077368845243885 2.097372773262942 2.674407900244948 -3 -2 0
1981 1 0.5214884090214787 2.6737368787965967 1.4800077716669506 5 2 0
6583 1 3.7858228606332807 2.11385372400858 1.831646962814944 5 -1 0
2528 1 4.011682955796786 2.6133399045653487 2.782244133556552 -3 4 0
4785 1 5.178317736159593 2.652296079940999 2.390114767176493 0 2 0
2812 1 6.680119084869553 1.7158516517683668 2.006620780249898 8 1 0
2363 1 7.941261513769835 2.464334969677416 2.6356328238409557 -2 0 0
6696 1 9.801805915809693 1.863107806584713 1.8715279199486903 1 3 0
3218 1 8.788604941884667 1.7320160924884245 2.077025730658811 0 0 0
2699 1 9.384693460941119 2.575179884101931 2.7566950668824663 -4 -1 0
3953 1 -9.944388019550582 3.2648853559950015 1.550742293124828 -2 0 0
5759 1 -9.19828926370245 3.104506514393292 2.4693965354887784 -4 -4 0
6676 1 -9.626944708039831 4.055669548399582 2.192641069250281 -2 -2 0
3506 1 -7.919169795926213 3.0913762779876097 1.5508599511042576 0 -2 0
1600 1 -8.303484559359442 3.5117776226054858 2.409386679371366 0 3 0
3572 1 -7.768564063434408 4.14170950152551 1.784384345485301 -4 0 0
4589 1 -7.374661528491223 3.402399087698318 2.8033285373994348 0 3 0
2797 1 -6.467293847507343 3.8526058476193525 2.244084123197233 -2 -2 0
737 1 -4.619809095016082 3.0745967365429454 2.0967384973420096 0 3 0
3707 1 -5.409724469313541 3.9938948737678253 2.5517319681344652 0 0 0
2913 1 -5.6657970868637255 3.8665446078311354 1.5043989146714927 1 -1 0
6625 1 -4.27769489769988 3.932708785092217 1.6339729862516736 1 2 0
2107 1 -3.4621606994095324 2.979708903752008 2.3732938311748826 -9 0 0
1860 1 -2.903076353341833 3.3354867713371448 1.4582992697307766 1 1 0
463 1 -1.4601223159768537 3.3776497033543773 1.6579423995674165 0 -2 0
3439 1 -2.2457554935717448 3.854427084507999 2.187274101212723 0 -1 0
4547 1 -0.7863755829761141 4.0046950492340825 2.280563003568923 -1 3 0
6613 1 -0.2733846977684908 3.105537789568865 2.6644739411166207 1 2 0
6580 1 0.823483795362757 3.4914308914457854 2.770537015342715 -3 -2 0
4698 1 0.01293314136685309 3.6430332604304594 1.5903834052888988 4 -2 0
5659 1 1.439937349466535 3.8273661310135685 1.7496344509452892 -1 -2 0
2727 1 2.4825120771043063 4.280070825651948 2.5284522420186493 -1 1 0
2427 1 2.2393113929236095 3.323385166634558 2.416034581529644 -3 -1 0
1432 1 3.4750412522238134 3.4263433092796447 2.300216995171096 0 0 0
4461 1 4.539143492093091 3.063280958974025 1.5939999484574134 0 -5 0
334 1 4.920419430049507 3.8362318270122504 2.28886384148816 -5 0 0
3446 1 7.129359361629863 2.940035143273052 2.1171846792962503 0 1 0
6409 1 7.186799190618534 3.919204361155615 2.7577082218986506 -3 -1 0
5240 1 8.853171466145103 3.6887283415993677 2.3890367821089518 2 -1 0
1905 1 9.458896612711385 4.127388852810108 1.5417911082342737 0 0 0
1119 1 -9.33244476027944 5.499237640434154 1.5849951184609006 -5 -2 0
2007 1 -8.609542694442966 4.712331263947661 1.860427095663791 1 -1 0
4328 1 -7.890993643548041 4.6054899805917575 2.8364524889826694 -3 5 0
5741 1 -7.992225202648539 5.503799437237512 1.6721527313185591 -1 2 0
826 1 -5.768744363959155 5.01065648301482 2.087010311639076 -2 -3 0
6636 1 -4.469209284498075 4.759400515390419 2.696659840668189 -1 -4 0
100 1 -4.509730715775425 4.948332557962418 1.5374624990177155 -2 2 0
1939 1 -2.899247063521551 4.537839268885649 1.4566718567930625 -1 2 0
2500 1 -2.991028464596725 5.674699243002063 2.3974223873551694 -4 4 0
2723 1 -3.331365727032307 4.594485019769369 2.4205557148284496 -1 -1 0
1974 1 -1.5500603235192025 4.452708877347334 1.704164029090242 -2 0 0
5915 1 -1.7967411380486995 5.455036271454149 2.164405189605985 1 -2 0
5103 1 -0.6417806968025981 5.46532400786637 1.5213589996616967 -4 1 0
1689 1 -0.384735462920004 5.091659784068095 2.7822440050671724 0 -8 0
3389 1 0.392115581507336 4.304062464387734 2.2253483813521986 6 2 0
1710 1 0.5768622560624945 5.327269761440939 1.5765528287142907 -3 -5 0
1896 1 1.6593448535720607 5.02332397349225 2.1770271736496656 3 2 0
4858 1 3.9522664936636662 4.538205613632962 1.648777176163369 -4 1 0
832 1 3.1066270665102866 5.027365094855283 2.07203766346949 -3 1 0
6050 1 3.3854080445570816 5.6983842648330985 2.788640113004064 -4 1 0
5061 1 4.502465322986831 5.687303854789762 2.674960427399004 -3 -2 0
4354 1 5.637427419137129 4.861483422336489 2.328676887772466 0 1 0
6379 1 5.539217590819186 5.624153949259652 1.4696761149680946 5 5 0
5497 1 6.667809054364756 4.580140330345257 1.9539949414413906 2 0 0
4097 1 6.903758058546742 5.651333909213484 2.324486026762047 1 14 0
559 1 7.6943381482954205 5.255734072876893 1.7778293863393735 6 -4 0
1279 1 8.26334957026905 4.511414337998622 2.565095774253245 0 -2 0
4291 1 9.648150108181031 5.259575133338759 2.0919609575540976 4 -1 0
2976 1 8.747523157265467 5.59397952686095 1.7578335494038366 -6 1 0
1347 1 9.534140667621177 4.471289902233176 2.6944844768409255 -2 2 0
5022 1 -9.4381046169278 7.1040787569889545 1.6078066426853113 -3 5 0
2940 1 -9.379025596467306 6.23763702438549 2.3284837903424793 1 1 0
1490 1 -8.658073905621311 7.0736872746423725 2.665935453829487 4 -2 0
413 1 -7.494344792175843 6.023608531658015 2.5403786924317253 4 -7 0
3792 1 -8.078257123182158 6.7408360570560575 1.6966969963887506 8 -2 0
4817 1 -6.52197479209885 5.919281154061678 1.802771394782867 2 -3 0
3258 1 -6.90028617611014 6.993208192727562 1.8803680734537744 0 -1 0
4229 1 -4.4970116965193965 6.253693669183407 2.615545944171552 2 0 0
1514 1 -5.626095759988702 6.964257836990606 2.4578630969349766 -2 0 0
2698 1 -5.281810304453589 6.292573587143535 1.7221614892931854 4 -2 0
174 1 -3.3594812433243635 7.012441328012319 1.6816296393132941 -1 2 0
1541 1 -2.881373795587105 6.744019075278452 2.5706807825687634 1 -3 0
2146 1 -2.3033349434249795 6.636583267946203 1.5459175409633623 -2 3 0
6542 1 -1.8997987742149192 6.585934845565949 2.8462524589258305 0 -3 0
1195 1 -1.0956998040104378 7.12491216420456 1.48167200578749 -3 -5 0
771 1 -0.7524441789279485 6.612728630301148 2.295780663427198 -5 0 0
4329 1 0.513150709545463 6.846289495575747 2.515568296220591 6 -4 0
1188 1 0.8918966117732284 5.752737491572993 2.7792974704528923 -1 -3 0
6126 1 1.5418191990828767 5.998719599184433 1.8115347640177393 -3 0 0
5482 1 2.347611888523023 5.8240899720232235 2.4901438564728617 -1 4 0
6478 1 2.168851532217863 7.038309010900592 1.813075113439227 3 -3 0
4816 1 1.517973233237549 6.968910597545699 2.670789363599758 -1 1 0
5648 1 2.9178740613402208 5.872449402959352 1.4562582361590783 0 0 0
6919 1 3.054664389776595 6.573525253954099 2.145784444532557 -2 2 0
5873 1 4.089497033563444 6.630665255917404 2.68482295292788 -1 -1 0
6147 1 5.667169542774196 5.940090575494765 2.5667655269481586 -2 3 0
5307 1 4.96022890244078 6.7454933380317375 2.0369311667019594 -8 0 0
4711 1 6.2395308469382 6.518333895957745 1.7128126772163856 0 -2 0
1182 1 7.042121606116163 6.864516963757174 2.337304076574785 -4 0 0
4653 1 5.991293737212068 7.090226400308071 2.718542613758046 -1 -7 0
5537 1 7.992464141951075 5.932100547898013 2.56494039141382 -1 1 0
3142 1 8.695155822566004 7.126229268291844 2.0360002397842663 -3 -4 0
6779 1 9.523789293685072 6.310472325131924 2.375747356147944 -1 0 0
125 1 -9.21428790430331 8.180940068363936 2.6084965856034916 4 -1 0
1130 1 -9.95897474012201 7.248336482158052 2.5493066843026573 -1 -1 0
3184 1 -7.244743512851956 7.997655159204523 1.8967195133924792 2 1 0
6213 1 -8.496360364850746 8.12771547741925 1.8739869542077567 5 6 0
3983 1 -6.05572540935371 7.896266764759118 2.2418551095757397 -5 2 0
6171 1 -4.513353539248671 7.299610154628669 1.797258300824174 0 3 0
1030 1 -5.087412763673236 8.271583222257878 2.6143111197176974 0 2 0
6448 1 -3.7834930474309885 7.229306356419047 2.6155603794417623 0 -5 0
1366 1 -3.107474228918948 8.404747958363869 2.733440969349425 -4 3 0
5878 1 -2.4690832925336075 7.554713498785673 1.9688331839421147 2 1 0
3985 1 -1.8031148076617018 8.542761492492536 2.333261254931625 -2 2 0
31 1 -1.4775046519293737 7.541921565709359 2.566982614614396 -2 -1 0
2577 1 -1.128067674574042 8.117340098680081 1.636694254642223 -2 0 0
3124 1 -0.2984972073549939 7.672898983098785 2.170274666480954 5 -1 0
2228 1 1.107930849916786 7.449520890023616 1.6836993165137468 0 -2 0
3043 1 0.5994590235184024 8.313973449288634 2.675338947833934 1 4 0
3776 1 1.685851766226023 8.183103149496773 2.106607500824924 -2 -1 0
3938 1 2.9509250626204198 7.811725056134351 1.9614712138258803 2 0 0
2898 1 4.581908411717859 8.052598661660804 2.461774552463809 -2 -2 0
4382 1 7.024744066451134 7.735934907487712 1.6367257935747277 0 -4 0
4599 1 7.064452371443835 8.524820049261344 2.484218173689745 8 -4 0
3048 1 5.902095653042148 8.167046038593579 2.370394125275114 0 0 0
5105 1 7.9911751500704735 7.9198763772435035 2.548610645411913 -3 -1 0
4545 1 8.135029806321652 7.74925541439047 1.4778925636281504 -1 3 0
1913 1 9.54090427257411 7.784565484267166 1.7535923773206534 -2 0 0
6155 1 9.00075162315575 7.82088517477936 2.8254133044606764 -4 0 0
1668 1 -9.66726903303032 8.66860211242814 1.7371818983260463 -2 1 0
5962 1 -9.308945752918827 9.750909772228155 1.7284464504932622 3 1 0
780 1 -8.813480152968951 9.082248195901697 2.3289716924900574 3 -2 0
1495 1 -7.615193209937203 9.784991947392074 2.84954246817694 3 2 0
2284 1 -7.692482557597625 8.711638559847374 2.545697078294198 -2 -2 0
2903 1 -6.848868729210278 9.200978404988644 2.1016184888924894 0 0 0
5354 1 -5.809344581422051 8.913799522781746 2.314133522732266 3 2 0
1553 1 -4.854879971246351 9.070656965136232 1.7205080867832243 3 5 0
2544 1 -3.821225776392141 9.683014865679505 1.8580670716066467 7 -2 0
3544 1 -2.7993781220144327 9.720965933612217 1.601249017063104 0 1 0
5771 1 -1.8541876189727255 9.29851268079822 1.5132479130930812 1 -6 0
190 1 -2.67118217486651 8.688287370609693 1.592101264006658 -1 1 0
3810 1 -2.3186671868852953 9.417840049979953 2.5057616035368984 -3 3 0
582 1 -0.26830433912092133 8.827014234382366 2.1926970957494216 -5 1 0
1422 1 1.3270059407148533 9.522737258544048 1.5156449803654812 0 0 0
422 1 0.5682422659152324 9.407283651143358 2.56153409492808 1 -3 0
4425 1 0.08352254481833106 9.587561807941528 1.6220153792674414 1 0 0
3599 1 2.3840535658885345 8.96374420143719 2.339172073067025 5 0 0
2747 1 2.7975226613759627 9.702311746082637 1.477538984516726 0 -2 0
1184 1 2.9559597539038402 9.896162329426373 2.581063252618549 1 -5 0
3796 1 3.684248412786943 9.181261961086014 2.0797227452416833 -1 -5 0
960 1 3.975075253946484 9.818044498339672 2.8282467031776006 -3 0 0
5078 1 3.340882747021157 8.580384480033922 2.813686859635168 1 0 0
3896 1 4.956156454431609 9.741306509330398 2.54672537761139 0 5 0
6232 1 6.094914240534596 9.174934505838209 1.9166682893118443 -1 -3 0
416 1 8.038578697622047 9.029581561343697 2.260574551524168 0 3 0
3377 1 7.167252061417655 9.542565965225688 2.1608295709975702 -3 -3 0
4767 1 9.1260928859561 9.911691331219554 1.4745362085304905 -2 2 0
3473 1 9.049529269450236 8.789860078545537 1.850052718672169 -1 0 0
6961 1 9.404651719082812 9.736383047381606 2.562935748847823 2 -1 0
3347 1 9.709117398571802 8.661492020897766 2.789264884451611 1 -2 0
6903 1 -8.950356119598574 -9.913622090821422 3.631148312363181 4 2 0
1605 1 -8.490810707187133 -8.608084628339359 3.1080213144054523 3 -6 0
3240 1 -7.721406331510072 -9.295987871276786 3.3332084477251978 0 0 0
3434 1 -6.454436832850548 -9.381625126042273 3.118057823731306 2 3 0
6994 1 -4.909887637654177 -9.166910070571726 3.534186096507425 2 3 0
6878 1 -3.793720738290153 -9.563617290921222 3.8414300336034555 14 -5 0
6957 1 -3.1741307666105323 -8.645950395600691 3.5181937875687415 1 5 0
6295 1 -2.77619232136075 -9.334100660439658 4.105375835328406 1 3 0
253 1 -1.9612832705095211 -8.661764848780853 4.064854596723824 1 -1 0