LAMMPS data file via write_data, version 22 Jul 2025, timestep = 2050000, units = lj

7000 atoms
1 atom types

-10 10 xlo xhi
-10 10 ylo yhi
0 60 zlo zhi

Masses

1 1

Pair Coeffs # lj/cut

1 1 1

Atoms # atomic

6530 1 7.730925281517975 -5.8178513212436584 1.4240265111684653 0 -2 0
5175 1 9.99447503395145 -2.3279769414084455 1.4229648754625033 -1 -2 0
4395 1 2.0801482772266424 0.3811093889313727 1.4275356582340628 -1 -3 0
1439 1 -6.024249721958963 5.296098841102456 1.359040467961857 1 1 0
6022 1 0.14739213651063207 7.278025688722253 1.407318423041635 0 -1 0
3271 1 -1.0649140688438958 9.731296858382205 1.3840864088292046 -1 -1 0
6399 1 -9.648415345822553 -9.24450541597372 2.346620234551558 -4 0 0
929 1 -8.86773673408889 -8.734993589029909 1.8065413114430577 -2 2 0
6815 1 -7.8161027888241215 -9.023859623892923 1.785281225318629 2 0 0
2711 1 -7.26751089636813 -8.571622391950134 2.8187996481918005 1 2 0
245 1 -8.521035904618413 -9.296939905651598 2.688990030674939 2 -3 0
1380 1 -7.45540748429348 -9.580534562031328 2.731650052321881 1 0 0
5558 1 -6.817096033157428 -9.808762317394038 1.7587229221496026 1 5 0
1501 1 -6.664614932624226 -8.614734657496136 1.9212993137677252 0 1 0
544 1 -5.6891812694464114 -9.518330512179881 2.309486372594965 2 0 0
2519 1 -4.4477848401949345 -9.337296308064737 2.380818826104781 -1 1 0
2626 1 -2.971838626182197 -9.54738439232932 1.777488343603322 1 -1 0
1769 1 -2.9019577960277125 -9.146434565594207 2.7499343797631077 -1 0 0
4386 1 -1.4279782438030886 -9.3657232942837 2.0939724917588154 1 2 0
5486 1 -0.8164013601189324 -8.623090698497807 1.5967661431452893 -3 -1 0
2771 1 0.38859838025674953 -8.819102655257192 2.0903484126428498 1 2 0
4272 1 0.052670527922933294 -9.673955779489846 1.6710044146396381 -1 0 0
2569 1 1.304824085371559 -9.904400182990438 2.388505294948603 0 0 0
4203 1 1.9260855958655092 -9.044555924313638 1.7909904795605576 0 3 0
4965 1 2.177115182378766 -9.489441682256267 2.751648367725226 0 0 0
6144 1 2.8479053519563338 -8.774404706034014 1.93383307620406 1 -1 0
831 1 3.899130314347709 -8.795584431242288 1.8532332932762479 -2 1 0
3873 1 2.970213389395039 -9.78463195213144 1.765890881611116 -1 2 0
1226 1 3.2781353157400788 -9.971510081508626 2.7908181884488186 0 3 0
755 1 5.291588477364403 -8.82526136461693 2.1456131617135505 2 -1 0
5707 1 4.334098643925059 -9.8209956964786 1.77755377756903 1 1 0
6668 1 6.09300889892203 -9.289020227195689 1.7758799012112536 -1 0 0
5377 1 6.357267369693279 -9.009965802718765 2.827160973536508 1 2 0
3245 1 7.760188551296707 -9.767571622513074 1.9686882501784535 3 -3 0
714 1 7.503309058692912 -8.701340224964715 2.7329853093580336 -3 1 0
2751 1 9.344411709541035 -9.847186266703941 2.0124431189061895 -3 3 0
5834 1 8.722159386693999 -8.89200783470067 1.9886794204766993 -2 1 0
4352 1 -9.607556562166446 -7.92759413349831 1.8382676730201308 1 -1 0
568 1 -8.954089950405338 -7.349714742236742 2.5460911897375436 0 -2 0
2514 1 -8.081516407658862 -7.555040573583555 1.6616107366820578 -3 -3 0
3131 1 -8.144113060821123 -8.062098743941366 2.580888553704582 0 0 0
2270 1 -7.092786081600873 -7.711937735304591 2.2422535859880988 1 0 0
1225 1 -5.999604677323445 -7.809776365293226 2.3660100540934845 -1 0 0
2399 1 -4.8375969364097955 -8.026653538844641 1.8055141777625887 0 1 0
4176 1 -4.211240514923766 -7.515766294514651 2.8534004393051604 -1 0 0
3948 1 -3.1294832916427646 -7.295817423394894 2.2662525935332596 -2 1 0
4775 1 -3.436169887159744 -8.472883595097947 2.1292829784901253 0 2 0
6193 1 -2.1813244831908785 -8.437218978293144 1.8490148197832055 -1 1 0
2822 1 -1.920172045657426 -7.586221324968563 2.6008944464787387 1 0 0
4100 1 -0.9567884115561669 -8.214095385639869 2.551448955110629 3 1 0
580 1 -0.6911680923621661 -7.19108782002343 2.8399511786154434 -1 1 0
3869 1 -1.15856362872766 -7.566484279311549 1.6763486088246815 -1 -1 0
4402 1 1.3311966317737922 -8.551440045139895 2.7639411932052234 -1 1 0
920 1 0.2987535556238525 -7.574508275523928 1.8370487259468349 -1 2 0
1318 1 1.2489301894863742 -7.734522733514296 2.06369048842043 0 -2 0
2284 1 2.2573231093968094 -8.179923774331632 2.488068334699755 0 0 0
3044 1 2.5741340030203066 -7.517526608368847 1.770954597783728 -1 -2 0
6155 1 3.2909688009841473 -7.979765893901481 2.4312780428631684 -2 1 0
3958 1 3.970641544551537 -7.199188125809261 2.819941491729948 1 1 0
3004 1 4.532359611865297 -7.633338849820733 1.789273946435625 -6 -3 0
6967 1 5.7067983734427 -8.079358804024128 2.741228739321482 1 2 0
342 1 5.774940024809202 -7.962676686069342 1.6171867926007057 -2 1 0
438 1 6.949410479265258 -8.020249042644476 1.7984918551044449 1 0 0
3559 1 6.709168483968992 -7.60575036804372 2.827972589412568 -1 0 0
2408 1 7.905598765611482 -7.424350116446796 2.689182753891218 1 -1 0
26 1 8.11731625961637 -7.995954275170483 1.8624881998361902 0 3 0
5902 1 9.398936637076178 -8.125123637998906 1.605940279176688 -6 1 0
833 1 8.902534324778832 -7.548272732223991 2.3732635841303726 -1 1 0
1827 1 -8.868833258536815 -6.872938631024863 1.559930562999745 0 0 0
3062 1 -9.471424383306587 -6.3108489028556365 2.1876724371821057 0 0 0
6715 1 -7.982258794423283 -6.253849578900821 1.623964891815178 3 1 0
4980 1 -8.376930464710005 -5.947696370048153 2.610300642099545 1 -1 0
93 1 -7.879709475390932 -7.029964387840196 2.599777987730356 0 -4 0
3386 1 -7.036826286337208 -5.925579009673068 2.1907983506233473 2 1 0
5864 1 -7.0327747790679584 -6.842655389708251 1.6893254365512926 1 -1 0
6748 1 -6.381926635175839 -6.723029528969982 2.56042295495414 0 2 0
478 1 -5.070817844581253 -7.07731393334051 2.2950050060060287 0 1 0
3079 1 -4.474304177306299 -6.106804096409785 1.975143608019363 1 1 0
4201 1 -5.602552257582994 -6.224134422249691 2.0486091633013683 0 3 0
65 1 -3.42155315903818 -6.170818967392542 2.2299505274307156 0 -1 0
6581 1 -2.4662801467676485 -6.889484270014091 1.632302160793183 0 -1 0
1790 1 -1.4751739632346776 -6.525733991006241 2.358138484447494 -1 0 0
6272 1 -2.490572440024876 -6.470065528840433 2.840896365588565 -1 0 0
5876 1 -0.5469608335234325 -6.0058666902256785 1.8990915649670208 6 0 0
2715 1 0.5471926888642442 -6.628242376923774 2.1108258338494306 1 -1 0
2893 1 1.9220437272333455 -7.020913900761334 2.4914474556876036 -1 2 0
2351 1 2.6802414912927395 -6.462755959583656 1.9193511630866973 -1 0 0
6069 1 1.5551495289185766 -6.455403094906709 1.645915143610305 0 1 0
6719 1 1.7108605883102739 -6.00930354597133 2.5729693169623675 2 1 0
6299 1 3.7601620254614967 -6.802212868304435 1.970368240436832 1 1 0
6253 1 2.916245508190358 -7.09356499818137 2.8346893646919913 2 1 0
4429 1 4.667551393900918 -6.574954981045919 2.448320119397881 -1 0 0
6678 1 5.552466448222283 -5.9465099657290885 2.087538206077326 0 1 0
2152 1 5.823805002943461 -6.993146816270893 2.616816769130719 -2 2 0
939 1 6.6920558554523915 -5.864668665408399 1.873437942395878 1 1 0
5493 1 6.572717263027023 -6.284873962377984 2.85483251247496 0 0 0
1138 1 6.9645533053948805 -6.876355990775107 1.9876576273136848 3 2 0
6554 1 8.091261185749065 -6.805714479032972 1.8564796424789252 2 -4 0
6398 1 9.649487502214525 -6.7235804154954595 1.7862506233492987 1 -4 0
4699 1 9.574351375702783 -5.835168008313014 2.5494174400958105 2 0 0
1062 1 -8.926242538581588 -5.347729841914413 1.9880217683988013 2 2 0
6927 1 -9.49788784543723 -5.336587829289052 2.7722847168879254 0 1 0
2643 1 -7.711970653893252 -4.876435641352293 1.9982129519233567 1 -2 0
156 1 -6.683656060316865 -4.758037747168755 2.4248247364547812 2 1 0
6342 1 -5.60280053843658 -5.099477452361967 1.4740381196412573 -1 1 0
816 1 -4.931278819576498 -5.102972504300292 2.413860027772998 -1 2 0
482 1 -3.2366998312987865 -4.428929809140882 2.5795166088267547 0 1 0
4109 1 -4.20673619255413 -5.014109141859009 1.6719477246690722 2 0 0
4804 1 -2.9604906584136117 -4.866866535514019 1.6244131712216454 4 0 0
1535 1 -4.264455998307773 -4.292496324202541 2.577578868500534 -1 1 0
5775 1 -3.8081238094671206 -5.282888748073233 2.7244718129587118 0 0 0
2123 1 -2.3251433889887694 -5.660219139273733 1.7049480298082744 -1 2 0
4430 1 -2.695024859489446 -5.4452919509446005 2.669184984129252 -1 1 0
4879 1 -2.2005080402777684 -4.454609999648115 2.5247547383080935 0 -1 0
4971 1 -1.7066871512024777 -5.5536487501007334 2.81270989525752 -1 1 0
762 1 -1.6654285553106558 -4.803029195212663 1.7509099608096756 -3 4 0
5490 1 -0.5455383894231641 -5.140115965394661 2.5209107689457224 -1 -3 0
1143 1 0.5620592808075826 -5.4749342605743845 2.3354217479034958 -4 2 0
3889 1 0.20652642466210405 -4.687282147533828 1.6959014459778843 -2 1 0
5391 1 2.355389408629472 -5.521486303752153 1.6586665381388876 -1 2 0
347 1 2.5801448175078634 -4.421365183356377 2.218127976296826 0 0 0
398 1 1.5902666670524035 -4.995291584812964 2.1269333829130517 -1 -1 0
6261 1 2.9070040036185416 -5.430770076148422 2.732871713242242 -1 1 0
5113 1 3.456064492420247 -5.533567512414627 1.596022280539551 -1 2 0
4702 1 3.9384907335764896 -5.669479889954221 2.7295862089186214 1 2 0
6021 1 3.889478606834541 -4.735022380303899 2.330317596718645 0 -4 0
1936 1 4.88520261116983 -4.461228024784715 1.7701873578102094 0 -1 0
4107 1 6.194217370511183 -5.110856781947966 2.818328595636929 -1 5 0
1940 1 6.165332440802933 -4.838626218512698 1.6819122506361022 1 -2 0
933 1 7.195928349960853 -4.876848662863011 2.0007874298757815 0 -1 0
6874 1 9.71376490045844 -4.526372651070351 2.7068980720401905 -1 4 0
4385 1 8.836888864545562 -5.419411216493614 1.8678371030076029 -4 -1 0
4096 1 9.861851693456819 -5.147896577467427 1.845423774665896 -1 1 0
2588 1 -9.389424607296574 -4.147169203051385 2.137078115383469 3 0 0
2534 1 -8.527233286823837 -3.020989790742222 2.8478119443690844 2 -1 0
1799 1 -7.979098689427448 -3.4449924645193053 2.051691315725134 0 0 0
6515 1 -7.611075175607004 -4.129044875722587 2.8413703090912854 -3 1 0
519 1 -6.885762989272994 -2.927123002073639 2.025397892605495 1 2 0
5052 1 -7.086967627580126 -4.002319757555419 1.8102920121739214 -1 2 0
1178 1 -6.00834286908229 -3.859325620562583 2.08590324758784 0 -1 0
364 1 -5.991694592083378 -2.994554155174071 2.6827837414417877 -2 2 0
5738 1 -5.178793744419312 -3.2021288029485 2.0971925848151085 -2 2 0
4734 1 -4.851969229415607 -4.127671731903729 1.6287689749231486 -1 2 0
441 1 -4.344247615960757 -3.13940673443862 2.847564756798908 0 0 0
3975 1 -3.8474593313791488 -3.582870187382475 2.0505077120514916 0 -1 0
3734 1 -2.688163052648914 -3.8212379455604517 1.7728599241597935 1 -3 0
3995 1 -1.5029395333956337 -3.769839052639274 1.9878986094795825 0 1 0
2159 1 -0.38719163077616525 -3.4273590689880447 1.9224822859145247 1 -3 0
2440 1 -0.8794323262741998 -3.05400090642348 2.763817457284411 -1 -3 0
3471 1 1.3294434373068993 -3.82184471107029 1.644982908641922 0 2 0
5208 1 1.0044665702230862 -3.4772928925065765 2.6929450483281614 0 0 0
6591 1 0.08942416971193481 -4.178568526317238 2.672784870642441 1 1 0
2555 1 2.33077951198556 -3.338601693104882 1.8714749915444273 0 1 0
2619 1 3.2055224656400756 -3.535893126609464 2.576127386711561 -4 1 0
2554 1 3.801430454102198 -3.991101738574348 1.6541304455648957 -2 1 0
4948 1 3.346042296616268 -3.0413517903973877 1.5168961047528822 0 1 0
2645 1 5.675855425498227 -4.086568433336518 2.250623090789806 -2 1 0
1693 1 5.11282572595487 -3.253538693478578 1.610496820499662 3 0 0
6783 1 4.628681882377715 -3.7906078053536505 2.4616047750751764 1 0 0
4940 1 5.960691543139905 -2.9088085677165023 2.10184607614032 -1 1 0
4307 1 6.742686661975423 -2.983855174662346 2.7882029855617585 -1 2 0
2802 1 6.59580707697168 -4.160876782251582 2.7613711713692046 -3 1 0
1376 1 6.650207914069192 -3.7327589539366963 1.686318942739654 -1 -1 0
6621 1 7.450937333308831 -3.6312134890569454 2.333090533222459 0 1 0
3116 1 7.999955006284277 -2.863154843609739 1.8888092299996442 0 0 0
6697 1 8.70211303886487 -4.237538985447941 2.52114687979271 0 0 0
1971 1 8.97592089769754 -2.872067265341018 1.651044812495904 2 0 0
5735 1 9.583939631304027 -4.034706375484875 1.8109581852952619 0 1 0
3836 1 9.591067661322608 -3.439995570933331 2.6171253325988966 2 -3 0
2180 1 -8.720010294378111 -2.6776287236998666 1.8281414037094563 2 1 0
1248 1 -9.129956121637422 -1.438689922492365 2.063812171935304 -1 0 0
205 1 -7.826973687214162 -2.372210118660729 1.5358836537003915 2 2 0
4330 1 -8.041287631360463 -2.0645027365153275 2.724810585079342 4 1 0
5753 1 -6.449994583991447 -2.1241199264292776 1.4873628344982726 4 -1 0
5711 1 -6.9046867848213065 -1.9504480088943699 2.6694115670158696 1 -2 0
2239 1 -6.04232703441267 -1.5862149726511794 2.1906755264302005 -1 0 0
1341 1 -5.270895828974968 -2.206532526699624 2.7393954056180747 5 -4 0
3754 1 -5.358493108397763 -2.2839340764590847 1.590638439556019 1 -2 0
3523 1 -4.554973787040272 -1.6129315059975047 2.2125291825999667 3 2 0
4040 1 -4.120785200160624 -2.5239472422900273 1.802300943746034 -1 -1 0
5354 1 -3.092697898055114 -2.6672345694595503 2.033769342954452 1 3 0
2409 1 -3.5297342051511444 -1.6367563459201857 1.97295693192912 -3 0 0
5303 1 -2.098216358925377 -2.815112576033843 2.4264451561123446 -1 0 0
2015 1 -1.6677582360221455 -1.9963290090561698 1.6681308294465802 -2 0 0
6680 1 -2.5189854774765257 -1.6395505705414544 2.324556214343511 -4 -4 0
1930 1 -0.6754575953221625 -2.3945305977092115 1.658452680661137 1 0 0
5716 1 -0.7173123197632981 -1.9437069575386756 2.693972879279333 3 2 0
6413 1 0.23711719342954599 -2.743752899878891 2.3288837168538414 -2 4 0
5365 1 0.659591056563363 -2.1314351900224455 1.5744076811799839 -3 1 0
5396 1 0.315089827574744 -1.68442721351821 2.473085185186556 1 2 0
4503 1 1.5051541341384336 -2.712195044431181 2.082770013517148 -1 0 0
2390 1 2.213786729168736 -2.370436308368914 2.8257154676544842 -2 1 0
1582 1 2.522186819950722 -2.3182798647186207 1.5321381299176882 -1 2 0
1888 1 1.4489440356343952 -1.6924481568142908 1.9281984731983328 1 -4 0
3166 1 4.239265042025922 -2.7571208446371753 1.965408220756246 -1 1 0
6286 1 3.3100579477190855 -2.380093054263809 2.3791113931285257 0 0 0
4367 1 4.272526973973501 -1.7525917802423217 2.651950092836831 0 -3 0
308 1 3.91180758750757 -1.8126145953773438 1.5905143623593374 2 1 0
4856 1 5.274650104569809 -2.1392706345945625 2.4692129083443 1 0 0
1937 1 4.950868963605134 -1.4888800576461956 1.6777665691230041 -1 -1 0
1893 1 6.0673452011104825 -1.9320538393792928 1.6827055417259638 -1 2 0
3334 1 6.414040864031382 -1.828306318207738 2.599147228811374 0 2 0
4348 1 7.1613219723982615 -2.2521339329823884 1.9703741483114539 -1 2 0
4808 1 8.279886064322472 -1.823865723725432 1.63545238461316 -1 -2 0
3623 1 8.469653101361201 -1.48911013172347 2.7565536302364015 0 -1 0
6383 1 9.269787286900186 -1.8485032412163698 1.9747693594825007 0 2 0
4590 1 8.830503728242315 -2.495881784982092 2.6649543672835736 0 -1 0
4259 1 9.982222188931473 -1.4559374767339663 2.618860518354733 6 0 0
3298 1 9.90277978462505 -2.444027478022465 2.829217577549303 -3 1 0
889 1 -9.265369134236147 -0.5326926932665417 2.5828543585766983 0 -2 0
6450 1 -8.735843841663831 -0.3462958004814195 1.6990983315046198 3 1 0
4759 1 -9.883415810199363 -0.02822375633320935 1.6619941671666458 0 -3 0
2791 1 -8.078818609096643 -1.3866334222604277 1.5247786440178641 -3 0 0
6080 1 -7.854649219578477 -0.8151955227801266 2.537825938669465 -4 1 0
722 1 -7.123668599900882 -1.2441070206582254 1.7620331277003247 -1 -2 0
19 1 -6.272130338286086 -0.5254687836727763 1.6573833273318102 0 1 0
6701 1 -6.6240498034681385 -0.6557860941294857 2.792704104213357 -2 -4 0
5419 1 -5.011146974576686 -0.5263467032479379 1.6750801663067936 -1 -1 0
4168 1 -5.252591981750185 -0.8361547166840596 2.6426694171480363 1 1 0
5209 1 -4.156024049505579 -0.6144039970512196 2.433871903212475 1 3 0
6966 1 -2.7789840180571326 -0.46911025695817954 1.9675209397132956 0 0 0
4333 1 -1.5808411990090891 -1.076324364728183 2.3350437233570926 1 1 0
4071 1 -0.731427615798274 -1.3446041416070247 1.7906639642170237 -3 -1 0
5249 1 -0.733158941135053 -0.1504389882528963 1.7939502869001351 -1 0 0
1276 1 0.46562872331557176 -1.000846535937843 1.5930796124774635 0 -3 0
1016 1 0.48365900976953363 -0.37703120443848276 2.515111727225826 -2 2 0
2556 1 2.3114566135061647 -1.2747626941083279 2.580744486237799 1 -1 0
50 1 1.490109561757207 -0.657165955316845 2.0486065527216857 0 -1 0
3681 1 2.4086890375213317 -0.9261436269328083 1.6074081145631889 0 -1 0
4404 1 3.043431449257725 -0.09909839149515863 2.0051687504292124 0 -2 0
5616 1 3.3142127234649608 -1.2093725000539184 2.566539508533772 0 1 0
3072 1 4.177839610860745 -0.6716755759456385 1.9108985048756504 -1 3 0
3025 1 4.830916253172174 -0.122766851232408 2.632538589389244 1 1 0
5345 1 5.48743149387428 -0.49050031282956086 1.800881903009837 0 -4 0
3739 1 5.4417325375338 -1.113686863413332 2.723417989260612 0 1 0
5927 1 6.764370559611882 -1.1037306465918852 1.8554578205822985 1 0 0
2975 1 6.901458331180372 -0.0738878346221739 1.517239618370578 0 1 0
5918 1 6.2417654534670985 -0.30896979120977913 2.793246550723496 2 2 0
1181 1 7.39980529010911 -1.414104381747247 2.598746205689233 -1 -1 0
4716 1 7.303618902620858 -0.376235121320772 2.4280976174280218 1 -1 0
2384 1 7.833034875701234 -0.8124815709539663 1.5931858288298868 1 2 0
5073 1 8.448596154643813 -0.3995548848578568 2.6156533260970667 0 1 0
4263 1 9.005339252803479 -0.7961855355668271 1.827137765832019 1 -3 0
56 1 9.388446317695346 -0.6353632932771339 2.8045434809977086 -1 2 0
532 1 -9.014092615176882 0.8862186998918395 2.8483827592566113 0 -2 0
690 1 -7.210170658802766 0.4821141184519632 1.8715679213415715 0 -1 0
3118 1 -8.461493319581766 0.598688598338234 1.9751549686351335 -2 -1 0
3691 1 -8.031609254223056 1.238240161722894 2.8490712948941823 3 0 0
3493 1 -6.187775406362571 0.27850291394321147 2.433127605051535 -3 3 0
3602 1 -6.148509140229557 1.224358083055299 1.5674008809813897 0 -2 0
6414 1 -6.775404666737916 1.061379156392766 2.6886371976100802 2 0 0
1759 1 -5.082746771213586 0.40641680539008695 2.2887639983441184 2 -2 0
795 1 -4.036286678955688 0.7845628753990866 1.7286827658063046 0 0 0
6929 1 -3.833449280893644 0.3732828662316528 2.700207565576925 1 2 0
4609 1 -2.926695763145869 1.0494832873460997 1.7116481437949234 1 4 0
6795 1 -1.864376899319891 0.3653881262036139 2.4445636931081265 1 -1 0
4150 1 -2.779232426588477 0.8035611217737215 2.7966163925453746 -1 -1 0
3112 1 -1.466096336865498 1.3076216023225349 2.0144436254133002 0 1 0
6576 1 -0.8214308345382819 0.5468302028182996 2.5393479209480403 0 0 0
1080 1 1.1848599071981634 1.0416132259220916 1.5260750298580834 -2 -3 0
840 1 0.027640269351154902 0.6067047339568638 1.7785610818268234 2 1 0
3634 1 0.9554570445066185 0.012784939205658185 1.4736953010635039 -2 -1 0
6674 1 0.3994146121163022 1.165146300194609 2.6361028575402194 4 -2 0
5037 1 1.6739438556957507 0.45849369177439997 2.4945071873886597 -1 2 0
2341 1 2.6208333475678236 0.936330618608322 2.2509251485955355 -3 1 0
4904 1 3.560486158821149 0.8920519592898134 2.6669059430485214 0 1 0
2241 1 3.417334010739449 0.8709407176628565 1.62203341498571 -1 0 0
3303 1 4.450030141745944 0.5479727124728505 1.7582597294998294 -3 -1 0
599 1 4.5535035881050305 0.994572398515466 2.7592526543588276 0 1 0
6208 1 5.688283957535326 1.0957669180636616 2.824623843054875 -4 1 0
2463 1 6.86766938162275 1.3496017242287195 1.8960634967581877 -2 1 0
6910 1 6.804979534810867 0.6509491086948541 2.6946373607055483 -2 0 0
5197 1 7.945669539908848 0.4762688184930449 2.793171688239854 -3 -1 0
1662 1 9.065279301375593 0.34329666102069084 2.0215973828716574 -2 1 0
1467 1 9.987661953889658 0.40310093252850193 2.6445016800736103 -1 -1 0
3369 1 -9.92082246213805 1.5180842765594107 2.1916944321219853 -1 0 0
4153 1 -9.234857600097264 1.5471985759155078 1.4855685324985972 1 2 0
232 1 -9.934721992579867 2.7866654553408474 1.9458011429157238 1 1 0
6243 1 -9.263356538800453 2.320263659216126 2.647507906446836 -1 0 0
4035 1 -7.413205261274976 1.5225738032275804 1.8451137872803478 2 0 0
761 1 -8.38102298168194 1.8426194533607783 2.0992992772227423 -1 1 0
4440 1 -7.413779359952854 2.754647923797939 1.618191231377661 -1 0 0
4889 1 -7.383122004453911 2.066926219001262 2.7363829581572454 0 -1 0
2202 1 -6.013743270729567 1.836583002852364 2.4568951699070047 2 -3 0
6294 1 -5.247411017060281 2.709921489088496 2.5701107670959016 2 0 0
4282 1 -3.1327886501876523 1.8793239512155828 2.5548354139079152 2 -1 0
2866 1 -1.8887543111133247 2.349120344149921 1.9265145396915124 2 -1 0
2709 1 -2.4957354178852014 2.6368538508936146 2.8022417403143867 3 3 0
4824 1 -0.6621460182721063 1.6164394921329366 2.726710298540952 0 -1 0
2022 1 -0.8277792130726241 2.1957752620393767 1.5574494172732551 0 -1 0
191 1 -1.1357568742445547 2.850794291266507 2.552697075558075 0 -4 0
3195 1 -0.043045824448010334 2.4783543142394686 2.39028610253709 -2 -3 0
5192 1 0.15027142317431394 1.677209689393732 1.710116937809787 2 0 0
6805 1 1.0661121697250155 2.013842993651373 2.053447695045952 4 0 0
750 1 0.8284617622158322 2.8493539034213446 2.5856463168736346 0 2 0
3380 1 2.2416156423753333 2.3374479744673646 2.1278117520589865 1 -1 0
3165 1 3.1693106874867243 1.81807262886112 2.243453514000431 -4 0 0
5646 1 3.4008866396239807 2.6906611066525974 1.6085444569333087 0 -2 0
1663 1 3.866521249779986 2.8490770946671082 2.58330682914223 4 1 0
2971 1 5.307138231312661 1.4459288620610173 1.8398040288818533 5 2 0
5924 1 4.308312884783466 1.9175795199829988 1.8248613447303872 1 -1 0
1477 1 5.924321494787928 2.4846214771263213 1.7713639087360127 1 0 0
1070 1 6.5203059071759135 2.032365569705744 2.6044857704052875 -1 -2 0
2648 1 7.050293277406236 2.3099350856625493 1.6327545193401936 0 1 0
1233 1 7.9019799807035085 1.4364083783726351 1.8873879880047597 0 0 0
431 1 9.044216676571759 1.7260543978123422 1.903243589209448 2 1 0
5887 1 8.596316073626392 2.66118668917338 2.203110056960252 0 -1 0
6536 1 9.500824464629137 2.3329403990741504 2.743465643753173 -1 1 0
511 1 -9.071622951641837 3.884245407247044 2.7633043556051096 4 0 0
4723 1 -8.294474028853179 3.2886580276514996 1.5291901216869224 -1 3 0
6622 1 -8.021265624393148 2.8899416591897107 2.405231995779306 0 -1 0
6710 1 -7.188607047554866 3.853918410383965 1.5481748613059187 0 -1 0
838 1 -7.778331959652942 3.96801221464348 2.809378610560666 1 1 0
6029 1 -8.227899434687927 4.24623514954202 1.8962864838991016 -1 0 0
6317 1 -7.056257325975694 3.13981377598733 2.7658557651413207 3 1 0
2878 1 -6.258469613535197 3.290320673684983 2.0087812674992813 1 1 0
2363 1 -4.294886645938227 3.238973395583122 2.2859249352824387 0 0 0
4249 1 -5.19266854432964 3.741508688499775 2.568534795902064 -2 1 0
2149 1 -4.108633673348546 4.2758511823282035 1.9172320087366523 0 1 0
286 1 -3.1053059854745464 3.654464598362691 2.5889020343300433 2 2 0
2501 1 -2.019399565275484 3.712460020843645 2.4946339557643613 1 0 0
4264 1 -0.2561279207284303 3.419964742825721 1.6946424673335303 0 -2 0
591 1 -0.9424248756896454 4.2160799052596705 2.4788604729320527 -1 -1 0
5998 1 0.6449437860852332 3.9125370039225764 2.1597245556149427 -3 1 0
4461 1 1.4986153974433838 3.2163136104702903 1.745882541783074 -1 -4 0
1115 1 2.558967873612773 3.4846279286856654 1.8835337242838857 -1 -3 0
422 1 3.696584894287662 3.8566747110502444 1.817879454177404 -1 -1 0
6304 1 3.1558889650435127 3.7923938742946963 2.7421460607070034 -6 -2 0
2954 1 5.000959902771386 3.0611644652347025 1.9990336110380775 0 -2 0
1286 1 4.71850524192789 4.2418888158414925 2.0730124356140593 -1 2 0
6017 1 5.632155333911303 3.8369542647618955 2.372519722455587 -2 -2 0
5244 1 6.584840466774396 3.268434712731847 2.366469742290587 1 1 0
3479 1 8.565680895162991 3.780430527670855 2.8453351493965138 3 1 0
2667 1 7.312596196637386 4.233020419601394 1.8608282126923663 0 2 0
4992 1 7.725782302094737 2.9625175990117456 2.4850176467544776 -4 0 0
216 1 9.32074832303041 3.6626081618076083 1.9906067488391637 3 2 0
445 1 -8.760969373050058 5.356262953288869 2.014398610187997 -1 -2 0
3776 1 -9.673470205328725 4.603081462594066 2.117540559818337 -1 0 0
5925 1 -7.696746017472492 5.094900902023872 2.4735546209797485 -2 0 0
458 1 -7.026969534070089 4.862084210914852 1.455300781844235 0 -1 0
80 1 -6.6768520961789415 4.291799060339424 2.4189211072380097 1 0 0
1125 1 -6.502502682500513 5.7030298236916375 2.6836426103994455 -2 -1 0
3945 1 -5.889696619438291 4.9212034406197995 2.6906208785951296 4 2 0
6645 1 -5.0493072691747445 4.7971471606483815 2.0204735653226535 -1 1 0
5663 1 -4.312882357336055 5.535382163273057 2.700828981938845 2 1 0
3864 1 -3.326147646284611 5.399216988313581 1.8857830806250995 3 1 0
3755 1 -1.9989093086248502 4.782654340354725 2.410679355756957 -2 1 0
629 1 0.36256405888884485 5.553146749064312 2.5694488205373567 0 -1 0
6914 1 0.02084432978624975 4.738496318857676 1.94394105431623 -2 -2 0
3065 1 1.4608453400309351 5.1914946095314685 1.8332761926998749 -2 -1 0
3600 1 2.46439320022165 4.805959875425785 2.183573142115299 0 0 0
6949 1 3.345704142339402 5.003139018573948 1.5955568538627907 0 -2 0
2685 1 5.519420460913977 5.015131112102478 1.5584311041319676 0 -1 0
1810 1 5.229681932204263 5.009087672078921 2.603721639526049 0 1 0
637 1 6.368710013555441 4.561481594578938 2.3327756348018753 1 0 0
6365 1 6.8918524307550255 5.469509300446148 1.5934725466443593 -7 3 0
4028 1 8.43306656791059 4.705861312842361 1.8346215462417268 0 1 0
860 1 7.84062797320457 5.639953401462432 1.888109292090354 2 2 0
3124 1 8.392977668633298 5.371674481763085 2.805295747797149 3 -1 0
6265 1 9.503558512558946 5.667284438074327 1.7310563509903643 -1 -2 0
1127 1 9.328980148749256 5.002378842953707 2.6121794900847237 1 -3 0
4144 1 -9.829259055439561 5.966550019593037 2.638718893286087 0 1 0
6301 1 -9.480566069839483 5.997417339681878 1.625027355805597 -1 -2 0
75 1 -8.601082148630654 6.5478189001869955 2.0971274503024855 2 0 0
1458 1 -7.786740628600724 6.021251239519122 1.5279917082024868 1 0 0
3361 1 -7.332840099784702 6.378490603744684 2.5598547154010984 1 -1 0
6512 1 -7.679010398150886 7.140967167582226 1.948177796028667 0 -1 0
5659 1 -6.822518325420479 5.884693342212562 1.7374137476161708 0 -1 0
676 1 -6.47338856240591 6.898184014532037 2.209558254558854 1 -1 0
2210 1 -5.299087782992274 5.7785561846524685 2.188803054677329 -1 1 0
3180 1 -5.59256231729652 6.4749364761221475 1.539370213554658 -6 -3 0
4767 1 -5.304479342853332 6.825594433571673 2.6117481289954734 1 1 0
2479 1 -4.241579625441195 6.065943638548145 1.5036068260276678 3 1 0
1720 1 -3.4910943879651213 6.247947012852477 2.460911942269359 0 1 0
5240 1 -1.6671532894535739 5.735477278625165 1.9014221706228875 3 0 0
6001 1 -2.460645363990409 5.755043054416668 2.6093598216075216 0 2 0
6269 1 -1.9917658248494765 6.759430770050733 1.6537629106949465 3 -4 0
5029 1 -2.817575826225919 6.999192839726132 2.298099421843765 -1 -2 0
6766 1 -1.6352539950359528 6.741366611508459 2.7223932187483455 4 -1 0
6364 1 -0.607582552369333 6.056981988506825 2.0308263356311045 1 0 0
6593 1 -0.1490712446332812 6.836563031710345 2.581703432683099 2 0 0
106 1 1.3519033764470647 6.031230765617802 2.5414117997843393 0 2 0
1748 1 0.502812517502223 6.150255808490393 1.6487234063966438 0 1 0
2806 1 1.8895012214618985 6.707381312738321 2.067153166183693 1 -1 0
2473 1 2.519722177938834 5.906345400726049 2.418312085771857 2 0 0
3388 1 3.921576055299976 5.7581789226916404 2.1727588795927932 -9 -5 0
3937 1 3.557667122284959 6.581545463871533 1.6030700834491498 1 0 0
5484 1 3.1389775429739646 6.925836653765617 2.5144023330442566 0 -2 0
3877 1 5.135886279943211 6.086138427287669 2.4578068834655493 1 -2 0
3651 1 4.717797000301183 6.492049280225792 1.654948146942997 2 -1 0
4433 1 4.309172093371651 6.745790992151383 2.588850486580165 0 1 0
4327 1 5.535939219694202 6.981686105370388 2.815567409624816 3 6 0
900 1 6.393198166950302 5.837664814004082 2.8518455729311 -1 1 0
6868 1 5.8745899283281116 6.202407147416342 1.8304730574042698 0 0 0
2871 1 6.954950361644709 6.3446081756798005 2.1931730497621804 1 0 0
2602 1 8.415735486804246 6.696530080796303 1.4530620684007163 -3 1 0
4181 1 8.491840146589144 6.362658924215086 2.794772068659767 0 2 0
2529 1 9.236221030847943 6.753490344865954 2.2927090471183553 -3 -1 0
5064 1 -9.172255099682591 7.315791694513556 1.67584013288343 1 -1 0
48 1 -9.66593161998894 8.351321880420278 1.69526183934943 2 0 0
5566 1 -8.70859675380829 7.41382659805952 2.6252643395356503 2 5 0
3052 1 -8.316609321042074 8.030484981626811 1.7042860927831285 3 -3 0
3953 1 -7.905584295817889 8.47833976675032 2.5124089734342507 -1 1 0
6681 1 -6.9052512586651975 7.8200075014690045 2.6447904491768988 1 1 0
6542 1 -6.406440679546994 8.441115365079487 1.8286395557824193 1 -2 0
1384 1 -5.659229258921493 7.798041382016527 2.2983137283760557 -3 -1 0
430 1 -4.584117006822245 8.210287780494465 2.4393875700152523 -1 0 0
1980 1 -4.135067294855599 7.201104192297447 2.269153205535545 -1 -2 0
6798 1 -3.422041802799191 7.935577413311184 2.438255735513445 0 1 0
1039 1 -1.9091027277254242 7.615749439941315 2.2638854893613307 -1 -2 0
2785 1 -0.8414469816523834 7.840759723257563 1.8342958778084963 2 1 0
1563 1 -1.2435837981558309 8.318015236683149 2.7337319007879155 -2 0 0
2564 1 0.3323719797792451 8.056961316756006 2.2935206126660668 -1 0 0
2634 1 1.3812102765763368 7.747158979074328 1.926545132107188 0 0 0
126 1 0.9800349268220423 7.179513978043401 2.7185490038888807 -3 0 0
4614 1 2.5310313061780625 7.484239090331406 1.6883945780930523 -1 -1 0
1545 1 1.8573449629783465 8.44806730375549 2.7214754516824726 -3 2 0
2196 1 2.1206881470423995 7.422327929770767 2.7727765653522893 2 -1 0
6494 1 3.294557223669872 8.217889938950623 1.7687016300458513 0 0 0
5565 1 4.113815600703559 7.471133868019403 1.7485539078165453 2 -3 0
5929 1 3.910123498282598 8.07843936848068 2.6347491346865968 0 -2 0
1472 1 5.880054527178174 7.717191142162706 1.867198639519997 2 -2 0
5571 1 6.12750053085742 8.466228065377761 2.52577980041166 1 -1 0
3455 1 7.2364578888926046 7.690868556734365 1.9853012004888684 -2 0 0
1202 1 8.358723998939752 7.373487846249289 2.2077976503125654 -2 0 0
5785 1 9.397629718161122 7.612272683938213 1.5459141724060332 1 5 0
2655 1 9.737351556901068 8.30932542911748 2.5552647898362664 -3 1 0