LAMMPS data file via write_data, version 22 Jul 2025, timestep = 2050000, units = lj

5000 atoms
1 atom types

-10 10 xlo xhi
-10 10 ylo yhi
0 60 zlo zhi

Masses

1 1

Pair Coeffs # lj/cut

1 1 1

Atoms # atomic

679 1 0.03354244449590372 -9.593833714501875 1.375163205715593 0 1 0
4362 1 -7.422967100055754 -7.324326339263387 1.4071992172510752 0 0 0
2825 1 7.864996282811283 0.8725342457255455 1.4280559995697175 -5 0 0
1025 1 -6.306936373350388 4.517206760658292 1.2834714470063755 -2 3 0
1131 1 1.2423320536042364 8.216977830823435 1.4152463339947343 1 -1 0
1877 1 7.183422220096455 8.058087852674673 1.3863875349085828 -1 -1 0
4290 1 -9.137550352636987 -9.539956440504568 2.849031931014428 2 -1 0
219 1 -9.142526023482054 -8.626135426947995 1.9646884068585837 0 -1 0
4261 1 -7.7952210790967955 -9.241867170131394 2.5497152808789005 1 2 0
3298 1 -7.220921298749608 -9.677632226570934 1.6359230289389408 -1 0 0
688 1 -6.6009807997947885 -9.220572623238771 2.4275995272788613 -1 0 0
4549 1 -5.689158711182426 -9.04754679462218 1.5782382271236348 -1 0 0
4693 1 -4.6922493135237255 -9.529854639141615 1.5426149994162537 -1 0 0
1520 1 -5.464241973657175 -9.66610544827607 2.4057564747256106 1 0 0
3770 1 -4.4793621315195935 -8.81421997704836 2.575564992521067 -5 -1 0
216 1 -5.61122872432741 -8.648537168711957 2.820705294870052 2 -1 0
1583 1 -3.6380725236819775 -9.442735511757261 2.422564012373487 3 3 0
4371 1 -3.844996074307767 -8.581329256918067 1.6287359346401347 2 0 0
60 1 -2.965124942200895 -9.488639507005727 1.5044098570742663 0 1 0
2822 1 -2.6269275592422296 -9.194767457899536 2.4771528930887987 2 1 0
4934 1 -1.6045230290033807 -8.594942782708765 2.051956514546028 -9 0 0
4880 1 -1.8877688228207086 -9.591542581754096 1.561189182772012 1 0 0
855 1 -0.9412436444335558 -9.397983797573517 2.2806558830149752 1 0 0
3092 1 0.04073363383014289 -9.02475527587695 2.429987551402638 0 3 0
2493 1 1.023595460871348 -8.80482961552457 2.2640754934080825 -1 0 0
2300 1 0.7679697872392354 -9.881696514384439 2.3365496938071746 1 -2 0
3364 1 1.8715392883423991 -9.72036010867006 1.8902419036184812 1 1 0
492 1 2.3037228892252757 -8.78204333312387 2.1390653593962976 1 3 0
1143 1 2.9527037293290026 -9.491596449843499 2.748072932753592 2 2 0
1564 1 3.253574243570121 -9.688994058554425 1.589236253626149 2 0 0
117 1 3.6234613274805403 -8.60212308871422 1.7807783688960628 1 -2 0
614 1 4.175332622787868 -9.46776667757401 2.108990947610321 0 -1 0
3052 1 5.17820878139325 -9.116248153464225 2.3157162161405545 1 -2 0
258 1 5.265665832684215 -9.91834528589514 1.5218550425439439 -1 -2 0
3743 1 7.102452875309318 -9.842829895984057 2.3766804929283945 1 -1 0
3279 1 6.3015441701562125 -9.17142542018947 2.614838803304053 0 -1 0
2260 1 6.254574951231563 -8.846476272594925 1.5390150744527324 0 2 0
1855 1 7.99759081276879 -9.365564663816103 2.7113349187891016 -1 2 0
470 1 8.039923759650188 -8.830554336369687 1.8568180062768564 0 0 0
4761 1 8.488515773462737 -9.757077260042946 1.8629217406691805 2 1 0
666 1 9.939654797335383 -8.863884518262505 2.5577128570204235 -2 2 0
4748 1 9.24672137902742 -9.064312455220183 1.6438587820944894 1 1 0
1491 1 9.157722830692975 -9.65384073660204 2.693049070414169 0 1 0
3568 1 -9.963162954157882 -7.233503456579077 1.5180224943229437 1 1 0
3735 1 -9.64699789028173 -7.843616617076726 2.3719754437693448 1 0 0
2729 1 -8.732975731143767 -7.445697520656372 1.5660276258252865 2 -1 0
1569 1 -8.627643823369672 -8.254941879750806 2.8431067960240584 0 -1 0
641 1 -8.082994315021898 -8.384705352562166 1.8250987172907107 0 2 0
1852 1 -8.044011164487047 -7.373459116915826 2.377952283521484 -1 3 0
4257 1 -6.377136359404949 -8.365057356055576 1.9805621713489292 0 5 0
2202 1 -5.907536917264074 -7.34807557156991 2.035729781148343 -1 -1 0
613 1 -7.00948855619194 -7.471465623576795 2.326136768197429 0 0 0
3984 1 -5.021628109462614 -7.609375677087161 2.854723438735881 -2 -1 0
2140 1 -5.01711364174504 -8.128724818686347 1.6530090565206255 -1 1 0
1763 1 -3.453196752547829 -7.767132411044538 2.1312539388847433 2 -1 0
1078 1 -3.3290009461196925 -8.547108865191078 2.7821923635911476 1 0 0
4038 1 -3.0325067509039982 -7.206784824351278 2.8208008564426565 2 -1 0
3841 1 -2.6557744209347396 -8.50071947439323 1.7004129021779908 2 -1 0
2955 1 -2.3835153698885465 -7.443219467452143 1.7222905241942896 0 0 0
2633 1 -2.3798368976731736 -8.050483179831694 2.6057704171335483 -1 2 0
1539 1 -0.41343678059725664 -8.33078818619084 1.7156564966224972 -1 1 0
2234 1 -1.2229264608943449 -7.354974929791405 2.837014120466095 -1 -3 0
4973 1 -0.3114405978963404 -7.170365586346742 2.0591299290919567 0 -1 0
3649 1 -1.285432243740942 -7.687748181478486 1.5390514314411254 -1 0 0
876 1 -0.7495620798112205 -8.330142814395654 2.8247373865059147 -1 0 0
2398 1 0.6008290666580796 -7.541068155226532 1.5767577602334157 1 -3 0
3850 1 0.9647810030729573 -7.6256616505323445 2.612530599865939 1 0 0
4110 1 1.7594602057158923 -8.002005723581602 1.671423260634547 1 3 0
1688 1 2.6131862500816005 -7.764243435712652 2.330619897321872 0 0 0
3315 1 3.8177047785273217 -7.600200528552613 2.1060854471421724 1 2 0
2460 1 4.613033145144949 -8.291849647373498 1.7895273866934065 -1 -1 0
405 1 5.606373909648823 -7.865930857572931 1.6313783425812236 -2 -1 0
1105 1 4.885054543374641 -7.742184637020831 2.807142054890015 -1 -1 0
4731 1 7.125347153724847 -8.465827798494185 2.389990927471524 1 1 0
2213 1 6.749209217888608 -7.771050221338666 1.5968024029837498 0 2 0
584 1 6.137376174573617 -7.193786485214495 2.8043524741782857 1 1 0
4990 1 5.94496360711375 -8.212059637827613 2.646784778174748 -1 0 0
4418 1 7.35336574969797 -7.462772955410394 2.517435421014379 -4 3 0
2335 1 8.360771059173059 -7.809188364681033 2.332004472710678 0 1 0
1748 1 9.296719591872026 -7.853037672848261 1.8237980570519128 -1 1 0
1788 1 -9.03818983107852 -6.977267414884385 2.424345810181492 -2 -1 0
3614 1 -9.910179348190512 -6.053546386421947 1.5325094517795803 0 -1 0
3737 1 -8.335763334021644 -6.052846690060102 2.1628627020691797 1 0 0
4676 1 -7.4648301244429796 -6.547494720588453 2.2513901812382944 -2 -2 0
4292 1 -6.195078671617095 -6.480995331839676 1.662447696214138 1 1 0
500 1 -6.3726330428583395 -5.906617290424317 2.7942384959511593 1 2 0
3966 1 -5.146359215569706 -6.602260395427969 1.5941021861518088 1 1 0
3592 1 -4.393137686504514 -7.106217195767179 2.101515084101132 2 -1 0
93 1 -5.277179309224369 -6.082199154933225 2.4331606513674853 1 0 0
1941 1 -3.2606092579199855 -6.748929464279134 1.8379986124384184 2 2 0
85 1 -4.228053792409946 -6.024862234394278 2.1006015649099745 0 0 0
3332 1 -2.768078363467934 -6.133703649475553 2.6816949160688033 0 3 0
2972 1 -2.174344243665131 -6.299969201166508 1.7057459384980274 3 0 0
856 1 -1.1264471364104915 -6.641834052622922 1.6887531630563528 0 0 0
214 1 -0.2946512315875284 -5.960507452040827 2.1741433857219845 -2 2 0
1169 1 0.6392275817134074 -6.468153965426704 1.961681325104267 0 0 0
3621 1 1.4101163464291826 -6.501628841495747 2.5590968638847995 0 -1 0
852 1 1.5088960937255183 -7.037785960125924 1.6443884895843537 0 -1 0
2161 1 2.49835269956573 -6.767112904039103 2.0415848646760097 3 1 0
3930 1 1.7207492044135024 -5.980826274951172 1.6420689119709067 1 0 0
3722 1 3.620943125247464 -6.557757778273054 1.9199761971624472 -1 1 0
420 1 2.8933255221868532 -5.78927327634234 2.4748145623629827 0 -3 0
3683 1 4.038545453256506 -6.314513553649331 2.83041570699718 -2 0 0
2226 1 5.374453941862218 -5.933671627896414 1.462544467372014 0 0 0
4531 1 4.777639780026185 -6.966739265377085 1.6793884674407302 -1 0 0
4559 1 4.9140745955031555 -5.813063718705297 2.4211547841380807 -1 -1 0
1795 1 6.012581746172234 -6.269965531799018 2.3942077170587672 1 -1 0
326 1 6.97154285882822 -5.7288055775003235 1.931764485526908 -1 -1 0
2773 1 7.373895857406224 -6.754009255247937 1.6383420408874516 1 0 0
4422 1 8.15432867912631 -6.702955196113718 2.458987974023584 1 2 0
3625 1 8.11816233502882 -5.765232631394946 1.7714717211501299 -3 2 0
2255 1 9.146850891173399 -6.414885070459614 2.143536580073212 0 2 0
3112 1 9.862545575728515 -6.85980316096522 2.8554810204467307 1 -3 0
2765 1 -9.591458401356599 -4.861690488453783 1.4648708365197958 2 3 0
2725 1 -9.149990947083259 -4.646766493284241 2.6020521198341453 -2 0 0
4483 1 -8.421190062918232 -5.107088766819352 1.5299140574880727 1 4 0
3488 1 -8.019452339837512 -4.823636763309248 2.7201154575362088 2 -2 0
4222 1 -7.192439854757982 -5.221173377029961 2.1584620942800803 4 0 0
4212 1 -6.3111829099465675 -5.27200196497168 1.574147193471084 1 1 0
2419 1 -5.234181297078546 -5.322015661438033 1.6143322543820782 0 0 0
3155 1 -4.924827733248351 -4.485550802191327 2.3283571490025463 -4 1 0
776 1 -3.3919859946435946 -5.5969171786782885 1.5417656806233082 0 0 0
3163 1 -4.044215367551006 -4.31532435793936 1.5936981588902754 -1 1 0
3983 1 -3.610797294447586 -5.013882496572289 2.3655147759637565 -4 4 0
359 1 -2.420581738559034 -5.277730963774147 2.1517614154495996 0 -1 0
742 1 -1.6818664566229597 -5.056103920507934 2.825284605312371 3 0 0
1531 1 -2.6422948501796597 -4.354249078143158 1.7233655378444728 0 -1 0
2298 1 -1.329002834610364 -5.118109017630948 1.7966920419768215 -1 -1 0
3626 1 -0.28984999529387817 -4.956907700048829 2.0066438239053617 -1 1 0
2814 1 0.637454184650894 -5.4512492890836555 1.6796453981078687 0 0 0
2476 1 0.7170460154719432 -4.584624806479948 2.268671601381481 -1 0 0
398 1 0.747865540656287 -5.544480946639355 2.739667974697886 4 -2 0
3071 1 1.8774728874884297 -5.324224550492449 2.650090510524432 1 -2 0
1122 1 1.5960447139690204 -4.866846618000211 1.7093620393218694 -1 0 0
437 1 2.608834174372007 -4.736452758186888 2.2458609065958957 -3 0 0
1545 1 3.615758609565178 -4.459075973564782 1.7578626842207552 0 1 0
4430 1 4.035874107395725 -4.368084026285296 2.660054242829546 -2 0 0
732 1 4.018500576271763 -5.42910796372694 1.9392065489603791 -3 2 0
340 1 5.37285225638318 -4.8201343247836155 1.6159983639924267 -2 0 0
693 1 5.961147549427348 -5.286358096414339 2.340071982491751 -2 1 0
1459 1 6.5139304790891455 -4.6708286548831595 1.5335875455834393 1 -2 0
3444 1 6.6157858639949785 -4.494585617397349 2.5686405377671906 -1 0 0
2451 1 7.728971499689268 -5.426340986093126 2.751506286469961 0 3 0
2081 1 7.618211946855379 -4.38436696193044 1.9360794835134583 1 2 0
741 1 9.155515218663705 -5.503535677953883 1.487592143692685 1 0 0
1023 1 9.93940776724646 -5.308332368909801 2.488966445896636 -2 -1 0
3165 1 8.843532419485102 -5.257362114607944 2.503681409185557 -1 1 0
1705 1 8.671673747869654 -4.539944193794902 1.5810171994826696 0 2 0
64 1 -9.412911549869065 -3.609402211696355 1.9328849104748036 -3 0 0
646 1 -7.249428779535297 -4.106951268463139 1.8204465896970403 0 0 0
3396 1 -8.535535335723527 -4.10352863334484 1.6601394232328528 1 -1 0
2708 1 -8.397398683681393 -2.994761845939624 1.941507233030742 0 1 0
1199 1 -7.206194270430709 -2.9474522141329453 1.6309521161177822 0 1 0
4462 1 -7.9223820769859215 -3.752832031935745 2.612038182265847 0 -1 0
4047 1 -5.861593101997407 -4.117110235690422 2.5108965587240455 2 1 0
3805 1 -6.265159248524641 -3.4217035500422988 1.827183973152074 1 0 0
2782 1 -4.863670920568847 -3.4487279688506165 2.1063386903231294 0 0 0
4622 1 -3.945814212899275 -4.010655736412831 2.6831491897482866 -1 0 0
1343 1 -3.53091325332106 -3.409727899646795 1.9089997471890068 -1 2 0
1765 1 -2.8045731189193437 -3.867361743694671 2.6524080356621136 1 2 0
3777 1 -2.169350127692039 -3.3821494029850676 1.686888565518959 -2 -1 0
3876 1 -0.9494861570094197 -4.196267169839928 2.4091592394171752 -3 1 0
661 1 -1.116675156065763 -3.215526063128554 1.6437926144150532 2 1 0
2249 1 0.1163522183559686 -3.8740320734943996 1.8951944520730657 0 2 0
4752 1 1.2587160489955211 -3.7165913001790503 1.5464610503677134 -1 1 0
324 1 0.8773532863513347 -3.619247186405708 2.7368132291968 0 0 0
3991 1 1.8776283781342071 -3.677962287558535 2.3288878869018816 0 2 0
2480 1 2.9845835946820154 -3.5977069904395504 1.8979577901760094 -3 -1 0
3726 1 4.116467897722689 -3.4769803400801824 1.476998556377222 2 2 0
2498 1 5.014185426726988 -3.769161843698601 2.2754622787461005 -2 -2 0
522 1 5.230653625274612 -2.8992358830973526 1.5403611614080228 -2 -1 0
3352 1 6.215404004286695 -3.5051449514790516 1.9825297751356716 -1 0 0
3265 1 7.152391374377896 -3.386995884586371 1.5650099002682611 1 1 0
3222 1 8.428704107068032 -3.197882380212922 1.9589324602194491 -3 1 0
3676 1 7.31580990270322 -3.335236182520706 2.8053240787666347 -2 -2 0
3108 1 9.355785441735236 -4.23874772147584 2.4666898828633457 -1 0 0
2091 1 9.59897312529487 -3.383197047329637 1.605674444331071 -2 1 0
4528 1 9.633601049040971 -3.25233607578546 2.7014814152260587 0 1 0
2680 1 -8.881615463342426 -2.056038422936392 1.7833765736586722 2 4 0
2447 1 -9.135215919909458 -1.446849830264681 2.762683322595045 2 3 0
2920 1 -9.924952904959586 -2.068339929784472 1.8058126298425001 -1 1 0
4793 1 -9.521328064141874 -2.6107041620802938 2.7382602902879416 3 0 0
2654 1 -7.210123381648818 -1.867931393570513 1.4639730227127676 3 -1 0
1444 1 -8.458834313751693 -2.4183754782124347 2.852633807277448 -1 0 0
5000 1 -7.334382319722365 -2.1588073057690327 2.657455771022856 -1 0 0
1129 1 -8.07884815995242 -1.4417571237389688 2.2440048398096013 1 0 0
3295 1 -6.192238586179785 -2.7364590403577673 2.5166400276140517 0 1 0
1670 1 -6.405048181873086 -1.6530044503450154 2.1695320931590736 0 0 0
287 1 -5.511071800751969 -2.6250913530367854 1.6510669013629167 -2 2 0
293 1 -5.225641892961739 -2.46796449019301 2.713944586273597 0 -1 0
4465 1 -4.328834959975593 -2.5814916754188877 1.7723991522442388 1 2 0
44 1 -4.929088248606916 -1.592049282581628 1.8662043297307374 0 2 0
2341 1 -3.4054406825812427 -2.196722271212813 1.7187052078628964 1 1 0
1815 1 -2.936144902290632 -1.992310012721189 2.692450188129792 -1 0 0
252 1 -4.031141530359607 -1.516802275225733 2.4546000284578713 0 3 0
3980 1 -2.1871818814984754 -1.884006297616499 1.6929804365068621 1 3 0
4754 1 -1.8299756580622097 -1.7941395969343232 2.792085385873336 0 -1 0
1536 1 -0.33892272859388134 -1.8904032039201348 1.5504432517626245 -1 2 0
4219 1 -0.15956744407291287 -2.774772113905827 2.514064093965677 -3 0 0
4863 1 -1.1311783989156807 -2.208009787026424 2.1235104767914152 2 -1 0
265 1 0.5738545956726377 -2.696926129911567 1.5645666626363266 0 -1 0
2798 1 0.515456939530032 -2.067373078885402 2.7605356259542906 1 2 0
1768 1 1.0285828714788032 -1.677705377264693 1.7470085358654948 -2 4 0
3998 1 1.3455719698241302 -2.6242557707594294 2.2842360575842435 -1 0 0
1937 1 2.3364881706935434 -2.788454585129294 2.554186890754645 -2 -2 0
932 1 1.55480745140516 -1.8088939065570664 2.75775070326097 0 1 0
2241 1 2.0710846165901087 -1.675754037143356 1.7997110404021748 -4 4 0
1120 1 2.1308127129889463 -2.8522399662633524 1.5421391283480392 -1 -1 0
2907 1 3.4565233059087817 -2.6266286521317657 2.279994109882646 0 0 0
790 1 3.1824685354873234 -1.6248272932904755 1.7773644747065884 2 0 0
3353 1 4.179588717356406 -1.5144639432566107 2.6564957343804334 0 1 0
2487 1 4.615042772902647 -2.5554442409689653 2.4284942327759733 0 2 0
4149 1 5.051977214681865 -1.7801154221666484 1.659646337572562 -3 1 0
1408 1 5.197277262899741 -1.7384847499907643 2.7641016541055015 -2 -3 0
950 1 5.572011782291237 -2.748694314118606 2.7103512342532925 1 1 0
2153 1 6.210902855404595 -2.3289228857638564 1.9588800800889963 -1 1 0
4361 1 6.978136144378791 -2.0774357440112445 2.8409336630366595 1 1 0
4217 1 7.423289778033529 -2.34475921814399 1.7467981596970863 1 1 0
460 1 8.158453366449223 -2.3392320701178764 2.6329340051053043 0 1 0
2109 1 8.936229411528599 -1.7949970157414896 1.7335907685334744 0 0 0
1389 1 9.358922266801601 -2.257934451921852 2.694127139988238 -1 0 0
4122 1 -9.355113283419163 -0.7451433118510464 1.9251647571066373 -2 1 0
1594 1 -8.337039710779328 -0.5427484956101791 1.827078053192755 0 0 0
2495 1 -7.032039104969164 -0.8135951522266902 1.8936231731803979 1 1 0
1587 1 -6.382017266124461 -0.2892842534420303 2.6310601552767197 -2 -2 0
1518 1 -5.952225331301052 -0.5244617840800436 1.6777552966422329 0 0 0
3609 1 -5.537349592647255 -1.0425416302529555 2.4273981964651545 -1 2 0
4871 1 -4.735326395621578 -0.4318610030380821 2.51850068708886 0 0 0
2731 1 -4.064134044341114 -0.7981820444907458 1.5496128904298285 2 1 0
2959 1 -3.2624086518650404 -0.7236958579725997 2.1488077280569846 -2 -1 0
2636 1 -2.091471462414031 -0.857828447276101 2.1496995762828286 -1 0 0
3496 1 -0.7006204017704748 -0.8228268580023892 1.8159538087701501 1 0 0
2434 1 -1.313427836505703 -0.15688356828564287 2.323660223875213 2 -1 0
2588 1 -0.12586980722956304 -0.7590405978600125 2.8084202005732752 1 1 0
2829 1 0.36236159757515274 -0.5476312506267592 1.578932723883471 0 -3 0
1732 1 1.643308868565325 -0.8254131304806601 2.1970073243211945 -1 2 0
2586 1 2.574136358900853 -0.7274784522281735 1.6477840385141915 -1 0 0
1167 1 2.551894363802374 -1.0561762306261826 2.649934187674528 -1 1 0
2507 1 3.4868673231630627 -0.6809922570379839 2.422459025439392 -1 -1 0
4724 1 5.366611267995057 -0.8822981693905542 2.1780482134189163 1 -3 0
2789 1 4.31775510298209 -0.8724654015597147 1.5677192683852 1 1 0
3429 1 4.627219988423361 -0.3840189320560642 2.593029695161821 -2 -1 0
176 1 6.23149226722779 -1.3647548053799237 2.516369205144755 -3 -3 0
1289 1 6.533471992901972 -0.4596570680457001 1.9858174014082848 1 -1 0
1103 1 7.433551860528511 -1.2548111920759062 2.172458065350419 -1 3 0
3259 1 8.41656859932443 -0.8719890017287376 1.9681055143937112 -1 2 0
4358 1 7.614963906626147 -0.2945646112993379 1.5377653276216985 0 1 0
4767 1 8.860237959036999 -1.4091032441525073 2.8510891382035113 -1 -1 0
3525 1 9.496246905714159 -0.9714824559024156 1.7596820977675245 -2 1 0
820 1 -8.616886609044519 1.2611488666486985 2.4469651566107467 2 -1 0
3116 1 -9.509457679752963 1.3284182900514705 1.9996679890384945 -2 -1 0
1391 1 -8.991398588737972 0.1994486301885398 2.2979331130877556 0 0 0
3647 1 -7.457472397012888 0.05998893424003077 2.6012316855542847 -2 2 0
1980 1 -8.113774016394409 0.57633388252482 1.8240773841175122 -1 1 0
2686 1 -7.440691442166561 1.2295816972033975 2.3779824489017405 1 1 0
2993 1 -6.892970527716346 0.275021915131799 1.6307716347409382 0 0 0
515 1 -5.918247254850728 0.4947666041836841 1.5691554943106236 -1 2 0
3961 1 -6.456539912860534 0.8352088223696683 2.830966033307514 1 -1 0
4772 1 -4.895206544896246 0.08790853242201896 1.507944594608483 -1 0 0
3880 1 -5.506354909443369 0.4577507623480615 2.6917167122810954 1 -1 0
2626 1 -5.232865156518611 1.417374391098978 1.7624104322216 1 1 0
1902 1 -4.177647627264733 0.9068684885422068 2.661280220083874 0 1 0
3858 1 -3.428557880713734 0.3304419716590257 1.8593484076866882 -1 -3 0
3765 1 -2.443793523168143 0.1486842482132794 1.6250106730143887 0 0 0
1847 1 -2.378198564546156 1.212207811714399 2.3365280896818303 -3 2 0
1393 1 -2.2234745272164624 0.03316808249734294 2.664036842792817 -1 -1 0
574 1 -0.6837394456799293 0.29427422805444103 1.4731889754569338 1 1 0
32 1 -1.2813674741757919 1.168486891024032 1.7995427788342033 2 -1 0
3651 1 -0.1769537762327677 1.4144691060348131 1.7103740284812463 -4 -3 0
4034 1 0.1263685431063813 0.650227716495047 2.5645891758936674 1 -1 0
4311 1 0.693913768240326 0.37615636532012553 1.7798463505638396 -2 0 0
474 1 0.7920302346425853 1.4037690223384964 1.8823597030974477 3 -1 0
4463 1 1.364329350446692 0.05063312493817081 2.6187172925616586 -2 2 0
2504 1 1.9037628362100611 0.7103219523745246 1.7781715370740838 -3 1 0
2496 1 2.7038195009068944 0.22152124175405705 2.3697720118790135 1 0 0
2358 1 3.8134406862240287 0.23509711019156027 1.7357936554381486 0 0 0
746 1 3.0877338065506836 1.1924671397592708 2.068633538488866 -3 -1 0
4839 1 3.651135844594756 0.46683815037250814 2.762110626380978 0 0 0
386 1 4.142100378219113 1.3550757800394553 1.6199234482045342 0 -2 0
1333 1 5.530488248261415 0.12654905885268963 1.6231874776988635 -2 0 0
2148 1 4.7083675302888786 0.6815278466664813 2.3874493125783802 -3 0 0
2691 1 5.963130747229963 0.24205346062629138 2.5440739227367875 1 0 0
3875 1 6.361164623171435 0.7779688991885466 1.7281292022600843 -7 -2 0
4183 1 7.224967580151032 0.21911060281639622 2.472648605091021 2 -1 0
1423 1 8.559034959837287 0.17475631945569411 1.9761632905278412 -3 0 0
3898 1 7.33844446216136 1.2856290819901615 2.6331240473395536 1 1 0
1850 1 9.782636382408993 0.05722256531158796 1.8550719362841066 1 -2 0
2784 1 9.314073361688735 1.289619162615818 1.7811968029738772 -1 2 0
605 1 8.979291648808658 0.7443195300418984 2.800783550912313 -1 1 0
76 1 -9.169302037774315 2.193671605063952 2.5656060517562733 -1 2 0
1306 1 -7.905169954803207 1.6556753935463533 1.4978995412593765 0 -1 0
3823 1 -8.428822423077083 2.8257665161753915 1.6575660336342943 4 0 0
3439 1 -7.9570076112320836 2.201390588924566 2.471671987046211 1 0 0
3314 1 -6.895508205861047 1.876773791921525 1.679217435305588 -1 2 0
223 1 -6.061019328392272 1.7396515362482423 2.4265263075385155 -2 -3 0
3685 1 -6.842987155350389 2.5514189514746537 2.582969834638099 1 -1 0
4812 1 -4.923754202558833 1.6524443730897675 2.7993121669627867 -3 -1 0
1440 1 -3.2758380739755038 1.448764927911757 1.8995925212497957 0 -1 0
1801 1 -3.543643703118773 2.653563905565553 1.9750601508740675 -2 0 0
4787 1 -4.22323010425035 1.9419206359969017 1.6844064649958248 0 4 0
2755 1 -3.5771185187674233 2.106761122776045 2.84406719053208 -2 -2 0
2962 1 -2.0840407913877708 1.9341849379120182 1.5184765816590504 1 -1 0
378 1 -1.4634583560247505 2.0636914699613684 2.31292293797699 -1 1 0
2957 1 -0.6104968832751193 1.4883120720787468 2.768869028118305 -1 -1 0
4366 1 -0.40195330836346943 2.4365663978192718 1.9659367334058775 1 2 0
1943 1 0.8030196721658113 2.222753981047852 2.692055281258467 -3 1 0
4938 1 0.7857693980869082 2.590161828567519 1.5351261401318903 1 -1 0
859 1 1.698845572592548 1.749466530418412 2.3140913733868747 -1 -2 0
441 1 2.6591074216900603 2.2390025361221206 1.970804227036197 1 -1 0
3811 1 3.7845874232303753 2.1679327561922137 2.524571596790379 -1 1 0
1364 1 4.749147617605359 1.931107977362328 2.243815023980767 2 0 0
1112 1 7.094885858853271 1.7949791906305697 1.7874678388898737 0 -1 0
3478 1 6.365927484656687 1.5066981322701143 2.8297146125612707 0 -1 0
2542 1 6.3610705207568214 2.4710035099994543 2.29503091973694 1 -1 0
3010 1 8.324273169975672 1.6620354764708414 2.0894279463864716 -2 0 0
1445 1 8.316326693315727 2.625286061618138 1.5551106264426486 -1 0 0
2541 1 7.481931669848648 2.6034998286002806 2.4378602382528816 -2 1 0
4146 1 9.746577978439946 2.251508283770301 1.6850843265842572 -1 0 0
1476 1 9.845464449886416 1.6875925860240157 2.784457509687705 1 -2 0
1727 1 8.949030420073942 2.3681199626115492 2.600272849219502 0 1 0
4467 1 -9.690964470119736 3.414369725145117 1.7021163884253265 -1 3 0
3654 1 -7.637146837889892 3.2222270968156135 2.8160003270328335 1 2 0
2695 1 -8.237006667369505 3.974012763601048 2.3165864921727466 0 1 0
1816 1 -7.414564725440924 3.102025170394005 1.6226263966383394 1 1 0
15 1 -6.090944052974515 2.9150550300225246 1.6343451243085982 -4 -3 0
1465 1 -6.5654579763793315 3.731463564986644 2.3942856793314005 2 2 0
2889 1 -5.586329385712202 3.92889122631069 1.691986656765322 0 1 0
2839 1 -4.633649101112196 3.9604859229857268 2.723461174648708 1 1 0
301 1 -4.708559593979718 3.311504504190578 1.4932443615760873 1 -2 0
1381 1 -4.0320791733057915 3.0676950535857705 2.7682792973963646 2 1 0
2402 1 -3.134713414679039 3.6791121630142793 2.393218944469629 2 0 0
1480 1 -2.4133622594632422 3.0140046632219457 2.1915068960111803 0 -1 0
3956 1 -1.3577012164367088 2.9796679767637486 1.572118996074615 2 -1 0
1873 1 -1.0447474075619083 4.223877242585783 2.7533491121968723 1 3 0
120 1 -0.1703066972911914 3.6118222848601653 2.037730111970921 0 3 0
419 1 1.3991455574086757 3.338055064517545 1.8785164925061941 0 -4 0
4769 1 0.8445700224963679 3.8896589631667657 2.82399342787183 2 3 0
2603 1 2.6412324244766507 3.3334437344991557 2.5674962499019522 -4 0 0
2546 1 2.3821600496141926 3.650039398558973 1.5443329623269964 0 -3 0
1316 1 1.8737674678662137 4.062527147843776 2.7231271567985744 -1 0 0
3992 1 3.3436749645514827 2.8993328396535785 1.6766285183772218 0 0 0
1303 1 3.5943036735923557 3.184957126822144 2.833942804175993 -2 -1 0
2041 1 3.662183566733339 3.990090872139925 1.7675307030540526 1 2 0
4902 1 4.444319719952945 2.9532454075935006 1.8514925756278409 1 0 0
1203 1 5.451310070520208 3.2006329919890075 1.9537993462755514 -2 2 0
1432 1 4.7741959534169345 3.6165229832387134 2.5694197743129186 0 0 0
2776 1 6.205782185089029 3.9177242051448187 1.839980619487119 -2 -3 0
483 1 7.066069322657921 3.9720672499172536 2.7172497995414706 3 -2 0
4309 1 5.95483515001278 3.7087175093186677 2.743112206814164 0 0 0
1652 1 7.4182478075032385 3.381777587345284 1.749570951421431 0 0 0
304 1 8.242190544872207 3.333515112615168 2.467278031952618 -3 -2 0
2286 1 8.623691779566242 3.828262555409491 1.482666978520247 -1 0 0
2444 1 9.264256578842746 3.3001634264854323 2.1672562411072973 1 0 0
869 1 -9.37811719579295 4.641111408678303 2.094545077301494 1 0 0
3428 1 -7.365390421842691 4.428544450792559 1.98219770558079 2 0 0
4478 1 -8.064570135223498 5.33166518246955 1.9479772864044664 0 -1 0
4630 1 -6.710169778042856 4.793615001291845 2.7293110903813895 0 3 0
4360 1 -6.261520973381646 5.585835947927525 1.83285857535273 0 1 0
623 1 -5.798248980433291 4.795136913980658 2.2195491261542215 1 0 0
1054 1 -6.011593529283797 5.648907156672397 2.845361962361733 -2 0 0
90 1 -4.7187888971413114 4.743350551206678 1.7865432241259362 0 -1 0
4347 1 -3.7239143957795804 4.530883235248321 2.356976543709075 1 -1 0
1814 1 -3.996503937584104 5.548304421092929 1.7665090353947073 -1 -2 0
4782 1 -1.7819701231768255 5.096837727628974 1.589130233485066 2 -1 0
4173 1 -2.708147703744343 4.703920107945591 2.2959176776547237 -1 1 0
3822 1 -1.8336014306160087 5.582733787310402 2.719660391780234 0 1 0
2339 1 -0.7871511539236142 5.173844235780149 2.473025995524523 -2 0 0
2869 1 -0.3172001697391331 5.184063930159123 1.5587452922831002 1 -1 0
402 1 0.4451351888307366 4.390430007468603 1.5561069310062505 1 -3 0
4164 1 1.019501594603753 4.858864804250429 2.394133809722834 -1 -1 0
1921 1 1.5548479315390018 4.357378831324864 1.7209949941670184 0 2 0
1804 1 1.9571917784458408 5.3577687429038505 2.630979445482864 -1 -1 0
514 1 3.101841777925776 4.294333725430933 2.70795516007467 -2 2 0
3564 1 2.9190511887380914 4.800655160532748 1.8093888920575725 -2 1 0
3097 1 3.1962394485623515 5.3752883219232155 2.6415629273644448 -1 1 0
4232 1 3.8151637680133184 5.258439881025362 1.7481919860075577 -1 -2 0
2014 1 5.21017627038058 5.278160417800952 1.9317760566566382 0 -3 0
2376 1 4.470553936011975 4.554750240963973 2.4154965008178513 1 -2 0
2336 1 5.926073062806101 4.775808638677417 2.5509906391098984 -2 0 0
3231 1 6.257126105679588 4.955537863254084 1.6059847445185784 1 1 0
2841 1 7.211453045859172 5.378947935411814 2.352631921341493 -3 4 0
1471 1 7.401675688223166 4.612989218139695 1.6439523162582674 -4 -2 0
4434 1 7.969291354206034 4.495265528033052 2.652355355588659 0 0 0
3979 1 8.288886956593586 5.708635350608542 2.62886759019866 -2 1 0
1144 1 9.682528045425368 5.465482829844938 2.1330355472017986 0 -2 0
4404 1 8.66231218123569 5.0381395419496044 1.819192610434008 2 -2 0
4250 1 9.476635701839731 4.363152576934339 2.0580126978000757 1 0 0
1315 1 -9.337042990597428 5.721649755261119 1.8311467669811863 1 -1 0
29 1 -8.857057963727016 6.731635836710412 1.613337298065424 1 1 0
3433 1 -9.69956472871343 6.298778819206941 2.6647822917976973 2 0 0
2980 1 -8.458534681837866 6.193580669414172 2.570704668582887 -1 -2 0
3405 1 -7.738607028544928 6.670208359214799 1.4488882018595404 2 -2 0
3316 1 -7.6909158157568305 6.966324048496831 2.7109087141747445 -2 1 0
3699 1 -7.15712591383707 5.937743590465044 2.29265960610819 0 0 0
913 1 -6.683357936967194 6.761835256994477 1.8768690393930276 1 -2 0
2227 1 -5.777241583362667 6.676697440954719 2.4934344806029363 0 -1 0
1894 1 -5.746501598898408 7.116589477848823 1.5026425377284662 0 0 0
4286 1 -5.1023438984595755 5.767772252323275 1.6403061548682907 1 -3 0
4923 1 -4.965940270161915 5.889626303139396 2.77586627657699 -1 -5 0
1574 1 -4.4575187813263115 6.552619569557828 2.118053178425987 0 3 0
4742 1 -3.0574973847296376 7.076214056085031 1.8480356016924342 -5 6 0
3260 1 -2.7938394310649155 5.784310450320164 1.7422201486542244 -1 0 0
1286 1 -2.0687130189717156 6.476165091098476 2.1283793761174783 -3 1 0
4295 1 -0.849996036664404 6.2410240892148945 2.165947625223833 4 2 0
215 1 0.6213729600636798 5.81745644109493 1.6031475377578364 0 1 0
3342 1 0.031207455896252255 5.8153476697433435 2.592142073048575 0 0 0
4305 1 1.0564288896588854 5.890927847250134 2.639201919476722 0 0 0
887 1 0.7263817809297436 6.839799853670851 1.9705553262228137 1 1 0
1194 1 1.6756387141384608 5.812559596880417 1.7622962683284418 1 0 0
4993 1 2.7497000892772028 6.36587425356213 2.6996244657561843 -1 -3 0
2004 1 2.7997746505190344 5.936483562777464 1.6013803117986196 -2 0 0
225 1 2.286633710462117 6.906008358541331 1.90046334653681 -3 -1 0
2157 1 1.7350120876176272 6.701954240691235 2.730635280357408 -1 -2 0
206 1 3.670848689397402 6.763911421306094 2.2992339315549137 2 -2 0
3000 1 4.121764171548851 6.359636326190002 1.4438356785562423 1 2 0
4865 1 4.477304502017841 6.00916629548302 2.466545805359223 1 -1 0
4095 1 5.515140688656935 6.180316027785689 2.289659183842928 0 0 0
4388 1 4.940196803906242 7.0102633532929435 2.632553846593296 2 -3 0
3398 1 6.4863515245996375 5.952016666817024 1.8689791022053157 -2 0 0
1674 1 6.627194098353128 7.12617027286616 1.7339283136187378 2 -1 0
2253 1 7.161664398345651 6.384691305399247 2.6362775321146144 -1 0 0
2527 1 7.837539435594742 5.998328696076316 1.6057786709596114 -3 0 0
1380 1 9.02606846957971 6.101808813741522 1.683494528006889 2 -1 0
1714 1 9.217287665747783 6.365666867406258 2.666203750036299 1 -1 0
2008 1 9.365011047844535 7.100497375967328 1.995680535360968 -2 0 0
3971 1 -9.58865374933712 7.2901452015213914 2.2659252995506947 0 -2 0