LAMMPS data file via write_data, version 22 Jul 2025, timestep = 2050000, units = lj

8000 atoms
1 atom types

-10 10 xlo xhi
-10 10 ylo yhi
0 60 zlo zhi

Masses

1 1

Pair Coeffs # lj/cut

1 1 1

Atoms # atomic

6237 1 -0.15328148324063542 -8.079469401835775 1.4972511891151947 1 8 0
2162 1 1.7031769370516257 -7.402294666354098 1.4179417998040111 -2 2 0
1610 1 -7.018373467217622 -5.796513148314141 1.4658885804794803 -4 1 0
3527 1 -4.788110147654362 -5.54104152287287 1.3909329983283367 -6 2 0
6858 1 -3.780689919205052 -1.6797140968518869 1.4362881312304312 0 -5 0
6718 1 -6.218160748152195 -0.7517711830562945 1.4419361756993152 -1 3 0
6512 1 -9.410178313420797 -9.104367975903052 1.7604674379299015 0 2 0
3604 1 -8.332334551336297 -9.543931237164708 1.6251091388638037 0 0 0
7542 1 -8.069779477795697 -9.367160052062896 2.609344784763546 6 2 0
2456 1 -7.278203470100913 -9.123911416419558 1.6260474124707294 -3 0 0
6884 1 -6.067352354632699 -8.92295940791833 2.3326318391348955 4 -1 0
249 1 -4.56363946877051 -9.445434726752042 2.9375696849459523 1 -3 0
2528 1 -4.0674046470353975 -9.946114379389389 2.1106401715120184 4 -2 0
4807 1 -3.4043906349792237 -8.697432803050381 2.237246878868873 1 2 0
1366 1 -2.8796508733893593 -9.50876641628883 1.8799240076005528 0 -3 0
2178 1 -1.7291254936755047 -8.968330387954808 2.666726632300941 -1 -2 0
6472 1 -0.9141669232727894 -9.246146243616241 1.8917197140654687 4 1 0
7492 1 0.05474749201262873 -9.578077749780181 2.8264366496122846 2 -3 0
1041 1 0.12417425150508049 -9.720749931575547 1.541087933243856 -2 1 0
5573 1 1.1809120579941632 -9.105057219151426 1.962302061799768 -2 -1 0
2515 1 0.1634502544467823 -8.722998006271675 2.271110626559063 -1 0 0
469 1 0.8613408661445905 -8.761531676103765 2.97259167391704 -2 -2 0
5870 1 2.7727781535243516 -8.686137048531418 2.527600443262192 1 -1 0
4148 1 2.023799025791389 -9.97340620170075 2.625978792702744 1 3 0
164 1 4.002541797032476 -8.870534478922805 2.473886762991337 2 1 0
6875 1 3.571417138131847 -9.390432077734905 1.5310509989556358 -5 -1 0
1253 1 3.191496896560155 -9.425490655001148 2.9916276598242537 0 -1 0
754 1 4.590504991039932 -9.894553629778141 2.6787193612154727 1 -3 0
4381 1 6.645701728767215 -8.756104408141102 1.5320186513826228 -2 2 0
6922 1 6.0031221014250615 -9.65257455973229 2.157962326863793 -3 2 0
5549 1 6.690661109347998 -8.572275941819056 2.6033333320395533 2 -1 0
7924 1 7.562934606640235 -9.087053482453806 2.100748307935723 3 -1 0
7407 1 9.794689414666465 -9.01678796968141 2.545883701332646 4 2 0
4482 1 -9.41590420458564 -8.070948765834025 2.3649720343704175 -2 -1 0
4611 1 -8.410135405671125 -7.318564846230812 1.793951531303619 -4 1 0
6090 1 -7.375621602225658 -7.287091626256607 1.6735393636734395 0 5 0
7850 1 -8.00506689178158 -7.936100254124103 2.8783776364622766 3 0 0
12 1 -6.800524011695547 -7.9301973723311034 2.6676911968431405 0 2 0
7451 1 -4.415352107518515 -8.542506611773353 1.7460295130020629 0 0 0
3830 1 -5.677022856964273 -7.962602801121719 2.5351657984026263 -1 -2 0
33 1 -5.366511137683378 -7.710741417932657 1.518656760889541 -1 0 0
1363 1 -4.2668141093551215 -7.386700799304139 1.7753701263122452 -2 2 0
6738 1 -4.261388415400546 -8.33099941634616 2.864811221551252 -1 2 0
7082 1 -2.303930195120606 -7.432053508019436 1.6682691489822716 4 0 0
5867 1 -2.1267169207429952 -8.52665040534625 1.8499178184373892 2 0 0
5266 1 -2.148374051164353 -7.848586911505662 2.7485141458291644 -1 -3 0
957 1 -1.2695641966336009 -7.223499854285485 1.7507528406749033 -2 0 0
2879 1 -0.15396205367393423 -7.452754526844341 2.366510203174422 -4 2 0
2984 1 -1.091754676882951 -8.094357290286233 2.277030066329197 1 -1 0
5055 1 0.811043494862291 -8.207562307638346 1.5422710929967844 1 2 0
3153 1 1.632978697905703 -8.190694586360067 2.3665679044867303 2 0 0
706 1 2.1956614499799287 -8.465358848700092 1.5661726534165832 1 2 0
1048 1 1.5700936521042028 -7.212301960088049 2.487677882196541 -2 -2 0
1703 1 2.6142912114211057 -7.589173708980608 2.085174459489115 1 2 0
6941 1 3.372735343754878 -8.383743962496132 1.660582721838312 1 -3 0
1042 1 3.3581459303258803 -7.440394935924272 2.940140082187302 -1 2 0
3141 1 5.693624158809648 -7.8597532254488645 1.6771396020955478 -1 1 0
6864 1 5.115988137616894 -7.328561358785749 2.3821238704806103 1 -1 0
6587 1 6.939816391259165 -7.718218323758193 1.743385395862123 0 1 0
1817 1 6.230794398594105 -7.544124582608625 2.774338505656228 -3 2 0
4401 1 7.892351045499734 -8.120094526129112 1.5552678557869402 2 -1 0
5170 1 7.506692414267332 -7.852988260992605 2.723056978479351 -2 5 0
1097 1 8.50799287162609 -7.950149835197895 2.5086795185459656 -4 0 0
7493 1 9.414637531276774 -8.239065446238476 1.8778447479999545 -2 -1 0
5615 1 8.63413672773262 -7.411502058912432 1.531619779798665 1 2 0
4699 1 9.69677560314789 -7.2194364549826675 1.6044743931528898 1 0 0
5001 1 9.64991121560346 -7.5329117154803935 2.6479472959890464 -1 -1 0
6806 1 -9.242467019006883 -6.60403552919823 2.0909311507312287 2 0 0
979 1 -7.751732636335937 -6.743557752170697 2.5145402609314704 1 0 0
5611 1 -6.169844346771987 -6.279979365408919 2.596664211701585 -1 -4 0
5173 1 -4.79253600351358 -6.239890262950965 2.065662786171314 -1 3 0
4702 1 -3.7860754289846805 -6.315792568394094 2.2095402889426277 -1 0 0
5759 1 -2.5129434878709955 -6.958524579299383 2.5949281048252524 -1 3 0
4272 1 -1.9415725857683137 -6.147864952220497 2.021347989612341 0 -3 0
6233 1 -2.8443670531318315 -5.762176001100168 2.8379089305321723 4 -1 0
6771 1 -0.4300229692273255 -6.310184434457963 1.5620219786090035 -5 4 0
6689 1 -1.415509799162749 -6.921372896718637 2.7327790351196426 2 1 0
600 1 -1.315470944440132 -5.786717457383802 2.8250320412128667 -1 -3 0
3731 1 0.7086335203855659 -6.876891056369172 2.988075078487069 -2 -2 0
5833 1 1.4631741952339856 -5.89097852513209 2.0687411486803753 5 -2 0
6832 1 3.182184832773839 -6.387643541754235 2.6525222278798894 0 -2 0
1786 1 4.410793228042995 -6.559093515863771 1.8841053022704737 1 -4 0
6390 1 5.210349107305131 -6.194397206124647 2.5674824494735855 0 0 0
6147 1 5.381044893389012 -6.7455092787188615 1.5390010620221286 5 1 0
3321 1 6.917519926485642 -6.729035253264945 2.9089650541718615 3 -1 0
3230 1 7.067104388527833 -6.296670115883655 1.8390973172933003 -4 0 0
5560 1 7.921748528159552 -6.668864055496796 2.417950280652921 2 -2 0
897 1 8.562892667410601 -6.129714681617656 2.955370139358371 2 -4 0
4950 1 8.868681991885985 -6.267463097539149 1.9646847602245927 0 0 0
5672 1 -9.02916767296559 -4.424855225481033 1.5281027828690243 2 5 0
2403 1 -9.317700843282264 -5.574784445081066 1.737082507928873 0 0 0
5571 1 -7.471681802726336 -4.408425805140486 2.2549297644294257 3 3 0
6404 1 -8.154489326046283 -5.260711535178374 2.284791653477628 -2 1 0
6347 1 -5.941844747017653 -5.544065616243799 1.6573591412842223 -1 1 0
1903 1 -7.0164352471315565 -5.604394976041967 2.6592856531768714 -1 -1 0
3476 1 -6.530220991020181 -4.478277096839394 2.7042910708432863 4 2 0
2761 1 -4.335972965408807 -4.7014123703656026 2.239518439108551 3 0 0
6245 1 -5.636203432152985 -5.373259746293651 2.6712569063257443 4 -2 0
2907 1 -4.1791679816173195 -5.660148079307592 2.9715715486245804 3 4 0
1622 1 -3.0798493152706006 -5.184275221933117 1.9675861767451448 7 -4 0
7972 1 -2.065596051232789 -5.07928484798373 2.2860957173897836 -4 -1 0
1588 1 -0.9957370268733916 -4.6618215788038775 1.6408726264218838 0 0 0
775 1 -0.7506294854915625 -4.831260973923157 2.6625331560620156 2 1 0
5253 1 0.22696534362242698 -5.433635696540175 1.751566915340478 -1 1 0
3398 1 0.5273469261705898 -4.33538941400481 1.8162311690363677 -5 5 0
5665 1 1.407262774886504 -4.920803251314842 2.3281025395009816 0 2 0
6173 1 0.3345083512288867 -4.951431363577203 2.865277237532418 -1 -2 0
4177 1 2.4290589212769094 -5.554996586873536 2.6165236538594123 -3 1 0
6901 1 2.7069077803394945 -4.566922210909316 2.027799448627288 -4 -3 0
2472 1 3.052057508094222 -5.703861304362466 1.5770744333951154 1 3 0
2020 1 4.16019362801398 -5.486212630988576 2.4929854364262694 -4 3 0
6122 1 5.005709409262037 -5.636978612496555 1.6898934480217365 2 0 0
5697 1 5.191702991686667 -5.197993607289829 2.777909867113896 0 -3 0
6154 1 6.2466326328659765 -5.140930625216167 2.906580385207414 2 7 0
7619 1 7.355575305317068 -5.631112455147993 2.714752677273069 1 0 0
5692 1 7.681437968745172 -4.3412250451210275 1.7918238409298053 5 -3 0
4170 1 8.5460098272971 -5.293633449128518 1.7430558890746968 2 -2 0
3081 1 8.50958372943857 -4.567315726083915 2.7894721566210676 -4 -1 0
6509 1 9.564371029231609 -5.280642892356203 1.893144692035418 5 0 0
879 1 9.839158014025838 -4.574269268264987 2.5823998837646074 0 1 0
7249 1 -8.620419397500863 -4.217836025174145 2.6847460366825127 4 0 0
7464 1 -8.619895162768437 -3.0817738125334517 2.9390961705342247 3 3 0
5313 1 -9.496415956408761 -3.5724830174970412 2.5688404217441487 -1 0 0
3530 1 -8.260606762700297 -3.627192843481851 1.8040835216903606 1 -2 0
567 1 -6.636426280696689 -3.0230768125924223 1.5033784396344125 -2 -2 0
4633 1 -6.31664022528753 -4.17485152002914 1.652777154520895 -5 0 0
6506 1 -7.003136166853995 -3.417502857915639 2.4038047962434375 -3 2 0
2347 1 -5.950064534182483 -3.5571862121558087 2.5174339221792263 -1 4 0
5760 1 -5.2806416984645885 -3.768146667642982 1.6837083641204282 5 4 0
7368 1 -4.866035396531731 -3.246828556084045 2.420173664817877 1 2 0
5452 1 -4.215627934320746 -2.98123292668145 1.602446877428451 2 0 0
7141 1 -2.966494493649454 -4.25186155581493 2.4226128679458108 -3 -2 0
6936 1 -1.6915564854664307 -4.165315291222684 2.8577986257646435 -9 12 0
880 1 -1.8903228636401213 -4.011598589111009 1.8721090515231231 -2 0 0
1289 1 -2.445605944716457 -3.444753529683126 2.667405642571339 4 0 0
1837 1 -1.566143231724744 -2.875068634203626 2.354940228877768 -4 2 0
5297 1 -0.9066377846776887 -3.678942749585049 2.427913751118926 1 1 0
4101 1 0.702740229321724 -3.2257906300590027 1.8545830716010763 -2 1 0
510 1 1.7282111042160173 -3.8386717725314847 1.9440225851248762 2 6 0
364 1 3.8523358321376766 -4.252524815779638 2.044025919126907 3 -1 0
4281 1 4.136251819811358 -3.1538096938102265 1.7673920704750528 1 4 0
7966 1 3.4217645456422985 -3.1330616183934845 2.5271060648915613 -2 2 0
5655 1 3.138874377524456 -3.7037213428633966 1.640398275009767 2 -3 0
3224 1 5.178087510700921 -2.9876510497765913 1.8756715247997753 -3 0 0
5300 1 4.845798161625066 -3.9188729782144875 1.9653587728791964 -1 1 0
7481 1 5.647173697105775 -3.7740213155925066 2.6491845474821467 -2 -3 0
6144 1 6.123550888457991 -3.523791764465197 1.8350357394612022 1 6 0
6523 1 6.846580457294625 -3.428724984031049 2.754343647361445 -1 5 0
123 1 8.45349091014039 -3.2863951423000723 2.6003936950273987 0 -2 0
7041 1 9.269444308652341 -3.282602306273248 1.8298496148511334 1 -1 0
4006 1 -9.412904661184998 -2.356784244424648 2.7347394988745664 -1 -3 0
2590 1 -8.94463731052497 -2.777985244127347 1.8629395120965737 0 0 0
1797 1 -9.848454758145717 -1.5653105832642316 2.1135585311090295 2 -3 0
4736 1 -7.6837256593418966 -2.7306006283999777 2.782160193387535 -1 -2 0
378 1 -8.003256978663813 -2.5390309151775234 1.7306475149265352 -1 4 0
6099 1 -8.382105144092167 -1.8933199302147659 2.7078345092925344 -1 -1 0
272 1 -5.801143929779452 -1.6082532128721858 2.2871454555912663 -2 0 0
665 1 -6.7558764952680805 -2.197446719701775 2.35736206903431 -2 -1 0
1355 1 -4.846967921129337 -1.7791480234301453 1.7267135988683269 3 -3 0
6787 1 -5.474227193914539 -2.556514312769484 1.900677410467733 3 3 0
3970 1 -5.4068416573147235 -2.448734327545384 2.959418043023427 2 1 0
6869 1 -3.2001861878211493 -2.6910863560164917 2.685817093008844 6 2 0
2146 1 -4.075963072691193 -2.105609171522988 2.4627760977650035 2 -2 0
3871 1 -2.2327216332519586 -1.7126937011312935 1.7719708873199 1 0 0
4834 1 -1.6947432200484387 -1.5770377811484166 2.7179400629162567 2 1 0
2521 1 -1.0918355961348116 -1.573082516355893 1.8973366367389812 1 2 0
5345 1 -0.39694152975931035 -2.299072750679207 2.161192177973423 -7 0 0
1312 1 0.346804216979689 -2.8519431568805502 2.9166192169816996 -3 2 0
1906 1 0.7940522740027449 -2.0102713532121634 1.5741363206547603 0 -3 0
5258 1 1.6322922809988532 -2.811111761116582 1.9850301998966355 3 1 0
3474 1 1.6582312681389912 -1.6545967856333161 2.114211019455522 -3 -1 0
2 1 2.164254191102312 -2.3637728802216955 2.7864720018574243 1 2 0
3369 1 3.4732983113713543 -2.417625697623164 1.6968682090219234 -3 -2 0
2749 1 4.2067845445999295 -1.7779107046589262 2.3429314344547842 0 1 0
6750 1 5.405869495111505 -2.1349746412403947 2.5926784662793887 1 1 0
4915 1 5.563764669900393 -1.7680520992613662 1.5504361178874964 2 -3 0
659 1 6.529158228416015 -1.7640286328685095 2.7002651688787753 1 0 0
7033 1 7.733942629264538 -2.2154190661213398 2.7296714309822954 5 1 0
2493 1 9.979614237005727 -2.437371429183281 1.5617090686056732 0 3 0
2413 1 9.480555576146907 -2.552929146795162 2.6059455148554838 3 2 0
26 1 -9.487579932973187 -0.9844184601890542 2.9340758994869973 0 -2 0
6799 1 -9.140742412935516 -0.5809983806003606 1.981651352132349 -6 7 0
4029 1 -8.319443256529444 -1.1452695290500385 1.9214743387384734 2 -1 0
2654 1 -7.9627451755444945 -0.07385139781193743 1.916040254455689 1 2 0
291 1 -6.708269270983236 -1.1899906187262683 2.4028380909607643 2 1 0
5162 1 -6.010392965732199 -0.451558024521377 2.6263895469623804 2 -2 0
6091 1 -7.111450597911387 -0.17985740024843683 2.768358152098464 -2 4 0
5070 1 -4.365311663458739 -0.7008719299844912 2.024988154655436 -1 -2 0
3131 1 -5.016974490967545 -0.12133313899519277 2.8054510488475355 0 -2 0
2510 1 -3.308944076736167 -0.8815241630501744 1.8011108428338825 1 4 0
5871 1 -3.534978972296916 -0.035675635853253146 2.7085616820599814 -2 -3 0
4447 1 -2.5727678781803336 -0.8103720272002212 2.693042174053001 1 2 0
852 1 -2.4186275417619023 -0.2252468322882028 1.6441381616738628 -1 -2 0
408 1 -0.95155579948894 -0.5710408688220137 2.5236868639993526 6 1 0
284 1 0.06662353632220043 -0.44854569314275755 1.5764552978505049 -1 -2 0
1676 1 0.4876897689184812 -1.286321830208411 2.4680164665018363 0 -1 0
1498 1 1.1565921263085535 -0.5153650166255663 2.3824999807423075 0 -5 0
4852 1 2.2279736960141046 -0.537052139121022 1.9651077114741038 3 1 0
5445 1 2.496483001932451 -1.251195739911572 2.8606453626217005 1 1 0
4420 1 3.8876956543117607 -0.48554953245149346 1.8686438397985334 -1 -3 0
5033 1 4.2443401585436815 -0.5562512558768201 2.837334707054984 1 0 0
1319 1 3.0712452223012936 -0.2663157361576273 2.8863006230526667 0 -2 0
70 1 5.324254536930308 -0.5685111996576959 1.5254480182518262 -1 2 0
4325 1 5.151069161383632 -1.0253727927973615 2.7723196738508697 -2 1 0
2277 1 6.26897611477864 -0.9855194952408511 1.6902314239743252 0 -1 0
2943 1 6.125741747919227 -0.3769726344868181 2.917891086033303 -1 2 0
7864 1 6.80733337968989 -0.07943484555433093 2.128791926803852 7 -7 0
7106 1 8.337645635423442 -0.921038914388153 2.918909758539339 -1 1 0
7487 1 7.258450685243778 -0.850092245367145 2.9295006847482443 -1 0 0
623 1 9.59308425501691 -0.2912188071202166 2.222650786168585 -2 -3 0
5107 1 -9.128306220777455 -9.300769344843406 3.011506092531358 1 2 0
1155 1 -9.100037351755754 -9.757619545547321 4.228109905474842 0 0 0
2426 1 -7.3992458782737245 -8.73846477058381 3.4420897823919754 3 3 0
5418 1 -8.408402087168932 -9.051933200625346 4.219512019800967 5 -3 0
2431 1 -6.355870359667964 -8.751786455486933 3.2627614015597546 1 -1 0
6286 1 -7.126020643101507 -9.606559934178103 4.125696401102185 2 4 0
4733 1 -6.253210454461461 -8.897201806054982 4.3202796642128165 0 -2 0
5042 1 -5.6906814379084345 -9.686924855743865 3.0271728842671313 -1 4 0
2002 1 -5.244899597256449 -8.695313087544763 3.2807518127863537 0 1 0
3368 1 -5.3085261542765405 -9.524350634085003 3.9864712573843493 -1 -2 0
6761 1 -3.3521455132603513 -9.429870816046046 4.276943115186153 -1 -6 0
5729 1 -2.777825728617048 -8.65353866031833 3.194792336501895 3 -3 0
6695 1 -2.4426658460883686 -9.866232487223721 3.6618946998381676 -4 4 0
7058 1 -0.5417289890980002 -8.59542434360154 3.137149826065463 -5 0 0
229 1 -1.382092671414635 -9.686649974099799 3.518974644651607 0 -1 0
7380 1 0.17933203825804248 -9.828913772057785 4.270380652827132 -1 0 0
4201 1 0.10851591072569076 -8.654457738467045 3.8595940653365166 -1 -1 0
976 1 1.1404445847185924 -9.039954124513276 3.9631857644187547 0 -1 0
7036 1 2.0259817262749116 -8.792951977492049 3.4620336336793316 2 -1 0
3658 1 1.959632988553017 -9.744889378122652 4.184945133066779 -3 0 0
3214 1 3.7832782595852334 -9.420280523346639 3.9114757817958563 -1 4 0
6113 1 4.709922258329108 -9.221401229768096 3.4503555683632072 -1 -5 0
3503 1 5.6189064129373865 -9.171843994207455 4.115850127085505 -3 2 0
4208 1 6.478944903078149 -9.37411810677143 3.5835082249234422 2 -1 0
1248 1 7.432698304233977 -8.619914752220536 3.440424111827813 -1 -1 0
762 1 8.072454936341453 -9.427665157560158 4.024813366124192 -3 -5 0
5120 1 8.639427328601123 -9.285782829183281 3.0187453990342634 1 2 0
5080 1 9.919911421216039 -9.221937836359674 3.695684379723228 0 2 0
4570 1 9.100959017412768 -9.259922409884041 4.316602775497731 -2 -1 0
3128 1 9.558201096404149 -9.968725468438022 3.084004568852493 -2 0 0
5295 1 -9.69959599582142 -8.236317539212678 3.4763528808273443 -2 1 0
2664 1 -8.770960888613324 -7.293243003603102 3.136519040571943 -2 4 0
6377 1 -8.88954518925013 -7.560332494318673 4.165007503756992 4 -2 0
5843 1 -8.709602592712566 -8.473365049455419 3.4554955312352704 -5 0 0
4262 1 -7.806536355060789 -7.590040803249424 3.901925743814452 -2 5 0
2149 1 -6.7804024403181185 -7.853199979362213 3.839120073464493 -1 3 0
1221 1 -5.524635049187288 -7.188313218549935 3.5210673486750346 -2 -5 0
6711 1 -4.2924905128534965 -7.388923765506698 3.863433089989673 2 2 0
4110 1 -4.822154600855167 -8.314946933018613 4.144760825696671 -1 1 0
3269 1 -3.8158061682080464 -8.508217793909868 3.9940130313906326 0 2 0
1605 1 -3.3986496341898964 -7.687274889521166 3.3898637766529616 4 -3 0
4357 1 -2.2976221027532113 -7.551713571571164 3.8574349864371795 -1 1 0
4469 1 -1.326930610747642 -7.961747204852488 3.6210883720110454 1 -1 0
4149 1 -0.3245867486741446 -7.650399708866369 3.407062824495072 3 -5 0
490 1 0.9015267459548515 -7.754170411331227 3.5098760532754674 1 2 0
4313 1 0.1530649966671883 -7.6068369513434595 4.327044225628567 1 2 0
4245 1 2.4380556398435402 -7.787932654681401 3.2674274040223956 0 3 0
7105 1 1.8440336240445132 -7.314613048150667 3.987362918887184 1 -2 0
7518 1 1.868993912839389 -8.291347414133101 4.423887600425273 -5 2 0
4874 1 3.7030583024769936 -8.398671656098564 3.473141536187324 1 1 0
362 1 2.8654460705858 -8.324396235119615 4.18857667545672 2 4 0
544 1 3.4009107011170028 -7.327438963439869 3.9270024039594595 -1 3 0
2949 1 3.8579777040819354 -8.095603138645192 4.483879657588389 0 3 0
6116 1 4.296376766198934 -7.587179790980882 3.1710204666796895 -2 5 0
7325 1 5.346566187804844 -7.584333512535993 3.5471333577879984 4 3 0
6536 1 4.7517396389905855 -7.691983345608175 4.277708467379909 5 3 0
4595 1 5.774137631460104 -8.55155046268052 3.037457683342352 -3 2 0
452 1 6.312354365435139 -8.343153213736263 4.1249013848495375 -2 3 0
2511 1 7.416564723521943 -7.464470690693477 3.5997368554191636 0 3 0
5292 1 9.714384278833435 -8.24865008508529 4.476443149315503 1 -2 0
1780 1 8.702194633447819 -7.682344818822679 4.219854052806933 0 -5 0
2788 1 9.157634252738946 -8.446555136635947 3.573431485275197 1 3 0
6698 1 9.757775198879436 -7.254013806354037 3.9978137925026993 0 -8 0
6191 1 -9.097053561711018 -6.264957882089141 3.175308567743623 5 2 0
3732 1 -9.418552017389947 -6.419480284662146 4.484727948865072 -5 -3 0
1502 1 -8.161287978168255 -5.814934277974061 3.3774310773607694 2 2 0
6231 1 -7.278872060727408 -6.488802932764304 3.985324110468105 0 -2 0
6667 1 -6.691783633704302 -6.952875658410815 3.2123767621542507 0 -1 0
345 1 -6.045614405832601 -6.064908482416342 3.749951506410448 -3 2 0
856 1 -4.817099672608883 -6.511151535060698 3.169699310477195 3 -1 0
2792 1 -4.301933209429475 -5.9878531825393955 4.044484397810005 -1 -2 0
4453 1 -3.3666702515055813 -6.7307986991409114 4.097906617305772 0 -1 0
7324 1 -3.726076290451781 -6.7524707621916775 3.161477501508642 2 2 0
1910 1 -1.506664113112528 -6.818006026235263 3.903943975678348 0 2 0
1734 1 -2.515797986326275 -6.550341518814558 3.5936587748298217 2 2 0
4400 1 -1.939922538407853 -5.875111289857602 4.477321013441765 1 0 0
1278 1 -0.6356733145194408 -6.429454214102242 3.3416612241384622 2 0 0
7753 1 -0.049213609792893645 -5.904241016043304 4.053225539693021 -7 1 0
4109 1 0.9913472756040734 -6.693410673882505 4.068949735389209 3 -1 0
6296 1 0.8384036384082524 -5.896760440369383 3.3641494449739837 3 -1 0
4315 1 1.7284498630064753 -6.441072520660143 3.352079651419045 2 -3 0
3677 1 2.654126812828305 -6.549210825751122 3.5355340236244563 1 0 0
729 1 3.8623850458004543 -6.384232729956906 3.539248691587827 1 0 0
1739 1 5.050223251329141 -6.361675394195379 3.964652638535045 -2 -4 0
6634 1 6.404081284399337 -7.097605655773127 3.772636717728312 2 3 0
884 1 6.0174203311155585 -6.195708647203214 3.372512731965731 -1 -2 0
61 1 8.388778316062963 -7.138657733268355 3.3910544680310406 5 2 0
506 1 7.799775467215144 -6.853666454802691 4.427539496946824 2 -2 0
799 1 7.200892715157176 -6.090130062448102 3.7947683437419233 0 -2 0
3219 1 8.807801330625491 -6.191093493754598 4.105327553987087 -1 3 0
1642 1 -9.437197239808004 -5.3676991557150275 4.355699492167057 -3 0 0
4273 1 -8.63080302861453 -4.923322728819166 3.7656626517326655 2 0 0
1635 1 -9.446910052461583 -4.704980616238724 3.2568867654931144 0 2 0
4766 1 -7.63235119600118 -4.738555808293786 3.2391144494992323 4 1 0
2342 1 -7.648018508787315 -5.042493693370751 4.331297355165063 -3 2 0
3833 1 -6.989857600844656 -5.46829523514274 3.7251020030795 0 -3 0
5150 1 -6.00183319291336 -4.637010255445586 3.821034241754561 1 -1 0
5273 1 -5.1310102618557085 -5.2056629860514345 3.7698788279738165 0 1 0
2775 1 -5.212448821453127 -4.422646684014851 3.0460072170626975 -2 2 0
6701 1 -3.2490978161473003 -4.99060245892941 3.350494972991144 1 1 0
4079 1 -3.103050519218527 -5.691974739047764 4.00266410987181 2 -1 0
3901 1 -3.796527441975879 -4.990698101761162 4.286001519376625 0 -3 0
4337 1 -2.026430147145501 -5.254027660278797 3.383615042409201 1 4 0
37 1 -2.4836184864456916 -4.806558791548855 4.23081876212382 2 0 0
6561 1 -0.32699091630739807 -4.622848931542308 3.635306741518627 2 -2 0
7094 1 -1.4051467646568934 -4.603511154576994 4.028439946517072 3 -2 0
7833 1 -1.0594901959922327 -5.5721063929997365 4.1161554177495825 -3 4 0
6131 1 1.2482171869432912 -4.669843920247794 3.4556982836635872 0 0 0
7605 1 0.8531747422261553 -4.982738278244017 4.48645236594395 -3 -3 0
5804 1 1.997534716661974 -5.482703550451456 3.592827859737591 -9 1 0
5217 1 2.388083349061992 -4.477338494016546 3.7943153040896327 -1 1 0
4879 1 3.004584956985443 -5.559406146441159 3.8375265517890926 -4 2 0
7895 1 3.3250096089719663 -4.8084465449811225 3.101009018972827 1 2 0
3643 1 3.7978515118267557 -4.981104621137116 4.328353912719164 0 0 0
6580 1 4.345493449434515 -4.984025986060529 3.453395105989407 0 -3 0
6385 1 5.357157457069903 -4.957025222726287 4.04362844601396 3 -4 0
6441 1 6.268979654460782 -5.000232551697183 4.402659058830241 3 -2 0
2175 1 7.746173423282065 -4.563936887209194 4.489888176348379 2 0 0
1851 1 8.364673638221456 -5.073665505895365 3.7559544634795623 -1 3 0
6328 1 9.468469947538312 -5.251639855935701 3.3742976820805053 2 1 0
3251 1 9.051035587613999 -4.501410252716153 4.483167221665279 1 -3 0
687 1 -8.841200457362612 -3.8948383682199625 3.93651637114723 2 -1 0
4604 1 -9.815522074775133 -2.9784234430855974 3.3677649722000806 -1 -2 0
6194 1 -9.404625366665691 -3.1514018464851863 4.289478429986996 -1 4 0
4954 1 -7.6621384936339725 -3.69326956876386 3.237461259523051 -2 1 0
2926 1 -7.888083330908954 -4.00514179768927 4.3423684087972765 0 2 0
457 1 -8.168760419944906 -2.9473124840470764 4.020320032753602 2 1 0
7676 1 -6.506065858732734 -3.724422038647755 3.570836153230593 -7 2 0
6440 1 -7.096828471190287 -2.8800550846277955 3.777406663294008 -4 0 0
2213 1 -5.459458889303089 -2.955208632293296 4.003464369350485 1 2 0
7166 1 -4.374929974094915 -2.949423896619286 3.2276767670212356 2 4 0
6399 1 -4.8515504999355095 -4.100415800221157 4.057418764281632 6 -1 0
2416 1 -4.074421785813079 -4.04340556003221 3.379010504706004 -2 0 0
6192 1 -2.916238759758108 -3.9770999539828877 3.8019354868835915 -3 0 0
6033 1 -2.012173822098559 -3.2606534361082082 3.8174120200768926 -8 -1 0
5660 1 -0.8351019822436315 -3.628085357569917 3.608217643225277 2 -2 0
5752 1 -0.9854286299182561 -3.072650971418211 4.450723130405717 3 0 0
1210 1 0.95268961995333 -3.1400634456110903 3.8361174761088463 -2 1 0
2323 1 0.4666457566730931 -3.909988086272285 3.247783146559831 0 -9 0
2491 1 0.387824053953213 -4.067145103424678 4.333457298917175 1 -2 0
4417 1 0.06364157831302276 -2.942182113231943 4.435100046625057 5 -5 0
4669 1 1.5037569046714412 -3.340876406783487 3.014568115070666 1 3 0
2258 1 2.599283286789121 -3.8832971660631355 3.009183343911474 -1 -1 0
4929 1 1.4341061774748456 -3.9778234353777573 4.318353516479531 5 -1 0
1553 1 3.6295615584453 -3.8083828888570084 3.6801640840750984 -1 1 0
7813 1 4.59603880941081 -3.911330652052807 3.1645688162184724 4 1 0
2586 1 4.448335661166077 -4.245367867136814 4.275875448005651 -1 1 0
2595 1 5.1248255125972015 -2.9960832965163537 3.1786888169841405 0 1 0
1358 1 4.913697159752696 -3.0398664369519 4.4972461584830326 0 2 0
3334 1 5.793520862049493 -3.679574990339094 3.863189248489345 -2 0 0
218 1 6.829597939214545 -3.787792835215527 4.181962802318717 -4 2 0
318 1 7.609434581754071 -4.219073368808857 3.592651801914807 0 2 0
6162 1 8.500893277689187 -3.826475951619449 3.731306073397157 3 0 0
2630 1 7.727837541061435 -3.024797415694987 3.431395901759343 -1 2 0
7211 1 7.800299301239353 -3.4475231149582948 4.4961546221893505 -2 3 0
4781 1 9.98434752809927 -4.1273885130623 3.809866815681486 -1 0 0
507 1 9.5762570591367 -3.105081874850064 4.479404194336238 -2 0 0
3420 1 9.124080160027944 -2.8703095353986585 3.591747292696669 -3 1 0
4968 1 -9.233884889624173 -2.101893727917759 3.796223747896007 -1 -1 0
1423 1 -8.229634272664036 -1.5218024672902788 4.316256900913943 4 0 0
5677 1 -7.543283633467958 -1.9609203984520802 3.43203694682612 2 2 0
3264 1 -6.3582293233531 -1.8252283671273581 3.2652747852846677 0 2 0
4788 1 -6.187441481354982 -2.274659770884657 4.488214619175111 1 0 0
4719 1 -7.07924926628667 -1.6797360884729589 4.346058772256797 0 0 0
6614 1 -4.287429476771383 -1.9351445548816875 3.450391404111136 2 3 0
2895 1 -3.235401864390087 -1.7229950140127177 3.136400086448919 -1 -2 0
7900 1 -3.096865531238173 -2.7099183837542666 3.996363105655634 0 2 0
5971 1 -3.4284373442103124 -1.4475201007818836 4.3477664142216845 1 2 0
5246 1 -2.274498386292576 -2.4135067369449463 3.090801916486128 -2 1 0
6369 1 -1.594699228056939 -1.7801299275978517 3.7237165970211485 0 1 0
5918 1 -2.5065312929298864 -1.5253212168878885 4.031436212677426 2 2 0
3668 1 -0.8829327363124277 -2.184250691720887 3.1055542432258467 -2 -2 0
5610 1 -0.5840806889355706 -2.1342032534580144 4.063636514530233 3 4 0
54 1 0.32508588367380564 -1.8032254507032883 3.315500105264423 -1 0 0
6435 1 1.2632816693272448 -1.975022324822382 3.9802046717808377 0 3 0
6961 1 1.8858315234415461 -2.796025298700106 4.0292732332757195 0 -4 0
515 1 2.450385900540048 -1.8953704334626584 4.350236699944684 2 1 0
6957 1 1.481490899840822 -1.5328201832790838 3.0852214752173577 1 -2 0
5538 1 4.175010998461868 -2.752903703865497 3.5645059311480423 0 -4 0
673 1 3.0896989549105545 -2.5871143293625387 3.683855347922519 1 -1 0
1157 1 3.95140738723501 -1.6813470707638178 4.330582259428333 1 -2 0
3714 1 4.390202951349426 -1.7449259302007987 3.307385842442013 -1 1 0
4992 1 5.155959043358849 -1.7930659139730034 4.047041065228524 3 -4 0
2542 1 6.426810737830195 -2.7300442782504777 3.417220349267058 0 1 0
224 1 6.985822323485895 -2.447246745118495 4.220048412868748 1 1 0
1455 1 5.881523185896906 -2.6694506325672056 4.374945767388759 4 0 0
4027 1 8.289088865662203 -2.3160452769035826 4.126594684035755 3 -1 0
4310 1 8.57366523432831 -1.9194826970319145 3.155789887198676 3 -4 0
5545 1 9.70505800921964 -1.7478059074912569 3.3198704253722746 2 -3 0
6246 1 9.144688720489723 -1.6220742959686034 4.210611501334408 0 4 0
4086 1 -9.165725612364433 -0.7827387581973839 3.876807093580504 1 1 0
3624 1 -8.310424168586492 -0.854043795023377 3.117175274505023 -1 0 0
2321 1 -7.173650622458857 -0.9130144755588747 3.491411446914429 1 3 0
7395 1 -8.366002678020264 -0.06337050395780433 4.024098525399172 1 -1 0
3488 1 -4.386267940726498 -1.052995020482559 4.077843938192836 3 1 0
5619 1 -5.272206688081877 -1.3605881686032775 3.3173960264787294 3 0 0
1493 1 -5.312961702643794 -0.6457620702523533 4.330176716549947 -1 3 0
4185 1 -4.217868800166512 -0.8980286515286635 3.0594436653190233 1 0 0
1419 1 -3.154609399433207 -0.6203669106730062 3.6741336352347713 0 -3 0
7603 1 -1.8452888419072884 -0.8077313053014089 3.435290335537174 0 1 0
1824 1 -0.6865487322382703 -1.096299843579573 3.5299294428653534 2 2 0
6206 1 -1.3245534195253559 -0.04037729467173221 4.01653448562647 -1 0 0
6970 1 0.18915617051863298 -0.16912782201790952 4.221856821848897 -1 1 0
5341 1 0.3029087993835844 -1.3956583335094885 4.294830485034229 -2 0 0
136 1 0.40505354648535835 -0.7012231455311081 3.278852756861868 4 1 0
80 1 2.0787727091581 -0.4719967400217701 3.517253235119033 -2 1 0
1624 1 3.4147725241446274 -1.1040882169090822 3.433810133633801 -2 -3 0
4024 1 3.8244999679823706 -0.07874325657992894 3.693775699596988 -1 3 0
3813 1 4.615492785253553 -0.8922351294850676 3.8331990814758843 0 -2 0
5243 1 6.180292443559589 -1.2296944209912428 3.4906985968445263 1 1 0
6242 1 6.251342117987391 -0.1098535755482885 4.0119137098330775 2 2 0
4870 1 7.240533633223181 -0.07369574488139463 4.276633176236698 -5 1 0
5178 1 7.926097259117783 -1.0651216276701627 3.8568348444837395 -4 -3 0
7672 1 8.107733809928652 -0.11366175544057402 3.56181375398108 -1 -1 0