LAMMPS data file via write_data, version 22 Jul 2025, timestep = 2050000, units = lj

6000 atoms
1 atom types

-10 10 xlo xhi
-10 10 ylo yhi
0 60 zlo zhi

Masses

1 1

Pair Coeffs # lj/cut

1 1 1

Atoms # atomic

345 1 -9.745649841870161 -8.775628660510582 1.4499071451829797 -1 2 0
219 1 8.940056447225308 -9.938531070997865 1.43980113633718 -4 2 0
2265 1 -3.760016485412446 -8.03929329032809 1.4952683681687884 -1 0 0
4086 1 1.1584962583886236 -7.820841330903951 1.4888063755087477 0 -2 0
614 1 -9.249160279379197 -6.5233034300754635 1.469777476381232 2 3 0
5689 1 -2.4784487601804397 -6.907098227976675 1.4015872550631825 4 -2 0
1965 1 6.090684236925744 -3.8524796708876403 1.4523306307992498 1 -1 0
5801 1 1.3540417794799715 -2.4197388118315373 1.4625896993349168 -3 5 0
5720 1 -0.6759938899338009 -0.7827940288713623 1.4535138270292243 0 1 0
1928 1 1.2292420515571596 -0.39456068224506324 1.492743091061852 -3 7 0
5652 1 4.307542237367569 -0.8161212219478499 1.4916747173841138 1 -1 0
3716 1 -9.52602386146869 -9.643999735090281 2.0723267915665677 -1 2 0
3994 1 -8.164936893729546 -9.652336379107393 1.9519097723710905 5 2 0
84 1 -7.128350449556941 -9.69932491657521 1.7757041405814207 0 -2 0
5370 1 -6.2995250572260435 -9.580496260896576 2.4602978863506006 0 1 0
308 1 -5.48747223796087 -8.871328612135622 1.8926605245206267 -5 6 0
250 1 -5.368603625672507 -9.929464556614 1.5498424725149844 -2 1 0
3520 1 -3.1452954727441793 -8.592078941024816 2.4150034444591415 0 0 0
4402 1 -3.6302735904598826 -9.264649710771728 1.6403616427276972 1 1 0
5601 1 -4.0909887790173425 -9.129310285452158 2.6310395406204106 1 -4 0
5163 1 -1.705959005139852 -9.330678838946868 2.6102124598323564 0 -1 0
1690 1 -0.7359780034216039 -8.924057605769427 1.8411914274102505 0 1 0
236 1 -0.3572245752547749 -9.853557272735367 2.998027151367783 -5 -7 0
1445 1 0.13595903731317466 -9.639945046707068 1.8986216319841978 -4 3 0
2155 1 0.838273662568065 -9.435037206932513 2.8780735401137525 -1 -1 0
3024 1 1.722556605593449 -9.186592707338097 2.0668822530042483 -4 1 0
861 1 2.5899750093189327 -9.420329949163552 2.576537194064413 2 -3 0
1153 1 3.870903823626508 -9.48033002771349 2.7441684531892285 -1 5 0
2562 1 3.249645689408718 -8.924431398197656 1.9136797806905494 -3 4 0
3332 1 4.738201428194704 -8.79869507222655 2.456774706083042 -2 -1 0
5678 1 5.382507274997701 -9.137128107884351 1.6976795613709452 4 -1 0
936 1 5.319436461192112 -9.905169378284118 2.53759805566138 -1 0 0
4694 1 4.511400472361644 -9.635547416318127 1.6972937204806908 1 3 0
1734 1 6.3959369078356785 -9.593826041678767 2.695533145520116 4 -5 0
379 1 5.810921707766132 -8.639703431851784 2.512457084837676 0 -2 0
757 1 7.404521808345776 -9.118034269751496 2.744706155183411 1 -2 0
2925 1 8.078008076338564 -9.52592852290764 1.9286826870773461 1 0 0
1195 1 9.44022643185368 -8.888770226206443 2.1438667615889546 5 -1 0
5379 1 -9.071423016126195 -7.8680878107792465 1.5783507216902248 0 -3 0
1326 1 -8.59512598217864 -8.365731317175415 2.4154332797444233 0 0 0
1760 1 -9.680516447243553 -8.071597410031462 2.4456271403609295 0 -5 0
1012 1 -8.970033872765041 -7.246739231918807 2.332652788381062 -4 2 0
5069 1 -7.6111971703300005 -8.322255211252138 1.780261503955575 1 1 0
3570 1 -7.966616813927576 -7.675896338879007 2.7024379654014683 -2 1 0
1644 1 -6.3666887371355125 -8.385264757630035 2.6003552270578774 2 -2 0
1280 1 -5.822479561983748 -7.914053994060667 1.6607309914972306 7 0 0
2414 1 -7.011836604555996 -7.34927964168517 1.8824992766476065 1 -2 0
1366 1 -4.410302822849641 -8.324890744937427 2.1728138279623255 0 3 0
3490 1 -5.434296326641481 -7.766290795464171 2.6315755476355234 -1 1 0
1089 1 -3.4439749874683594 -7.514940607272002 2.6712285171688817 1 5 0
2873 1 -1.539463681852427 -8.298214328683741 1.8926377507799446 -1 -1 0
3081 1 -2.5187445578090193 -7.918151331716431 1.7709690630703083 -1 1 0
3193 1 -2.231298442711435 -8.25395434864151 2.755091821867778 1 2 0
4533 1 -1.7353397942216264 -7.4110043483500325 2.969312917830347 1 3 0
332 1 -0.5661051839573029 -7.515579975847876 2.627430907262359 0 0 0
1155 1 -0.6180354269847158 -7.7808934055395165 1.6412340695815673 -2 -3 0
3267 1 -1.0749735252290609 -8.350603868042178 2.698256506338609 2 0 0
2004 1 0.3481556289113388 -7.96741795184179 2.151631265803362 -1 0 0
691 1 1.2056469383021682 -7.926246410778374 2.8850243473612 -1 0 0
9 1 2.457882523449934 -8.256471215588329 1.8623011238126312 -3 -1 0
3747 1 2.3584483787053325 -8.360881400145757 2.9141440244952417 3 0 0
4082 1 4.052325777014249 -7.426312800508453 1.837986223079322 2 -3 0
3304 1 4.107326276787308 -8.167173541862258 2.9050199887669126 -1 6 0
3145 1 3.1097151973230535 -7.444104548196253 2.5607967316490483 4 -2 0
587 1 4.61489029656919 -8.283162477624954 1.5741982446764573 1 4 0
5509 1 6.897647545416258 -7.789526203799829 2.1272317132351164 2 0 0
934 1 5.780899474507337 -7.806599200461752 1.8878929649691882 -1 7 0
1104 1 8.087986175875486 -8.419726953058168 1.9954524409677092 0 -1 0
1839 1 9.033216603290516 -7.5091462222400285 2.151317349537636 -2 0 0
3587 1 -9.095312085738986 -5.994311893913371 2.512062065004532 0 -4 0
4177 1 -8.097342090012779 -6.7291838616490995 2.47743749903358 -2 -3 0
3064 1 -7.353987907270096 -6.0742509073619635 2.20083874919309 -1 1 0
4213 1 -6.432378629651753 -6.999215435198071 2.7009808813765877 3 1 0
4684 1 -6.031534326792131 -5.864632432570687 2.6502001605418264 -3 3 0
262 1 -5.382162110236756 -6.846127241940124 2.234264896815374 -1 1 0
3920 1 -4.305978303823898 -7.01266451527883 2.001949489009327 -2 3 0
4791 1 -4.7845331124601795 -6.088149850683562 2.4988348416846646 0 -2 0
593 1 -3.8625730969947116 -5.891913191153175 1.6099053459231092 5 -3 0
903 1 -2.6634229733827155 -6.799838782805273 2.482286980828233 -3 -2 0
5662 1 -2.6475239865617892 -5.75561310511348 1.723552835384848 0 -2 0
190 1 -1.5202530147789586 -6.623234705216047 2.0098276241337554 1 -3 0
1666 1 -0.23619823858288616 -6.759479340115596 1.9176403971716722 3 -1 0
199 1 -0.7560166922286229 -6.51198557792184 2.8991328557774168 4 1 0
1439 1 0.36310364496184705 -6.886810603601745 2.9297971541284173 -1 -2 0
4844 1 0.42322065374585843 -5.881466013982158 2.207261839781207 -1 -1 0
463 1 0.8966977748391503 -6.958446627403774 2.0742967778366643 -3 2 0
4247 1 2.8027002179894387 -7.101557530536227 1.5950237067821045 2 0 0
5312 1 1.4877851028996252 -5.960985593905564 2.0399556977293827 -1 -2 0
3316 1 1.8989940982168767 -7.060186968202671 2.163440531035252 1 1 0
4946 1 2.2382884727851518 -6.246759417121696 2.6536939442877467 3 -2 0
2629 1 2.7913073263516393 -5.9560361810739435 1.5936587881984063 -1 -1 0
923 1 4.247068469360558 -6.333096331086963 1.9459267246901768 4 -1 0
656 1 3.436759727983594 -6.425863522469761 2.5942167424128786 3 2 0
2998 1 4.342450203226384 -6.956051427162322 2.8466316342652376 0 5 0
2606 1 5.320147049461997 -6.825074945110711 2.400014167657946 -1 -1 0
4356 1 5.06977058750724 -5.780417958121078 2.422737693340185 4 1 0
589 1 6.629838313017897 -7.039449933806944 2.7808384155038373 2 2 0
4189 1 6.291576245396421 -6.759969444179641 1.6838560882381313 -3 0 0
1291 1 6.069357795332891 -6.016200159238812 2.5735921656637366 -2 -4 0
4028 1 7.0485673213985836 -5.77426927418324 2.284148822702121 -3 3 0
270 1 7.292224695071433 -6.559768367776979 1.535288411754522 4 6 0
1922 1 7.897879612829759 -6.774839446687181 2.364501434115077 -4 3 0
4862 1 8.7841170626136 -6.6025726405221 1.6607430754596315 0 1 0
4460 1 9.862280721451965 -6.120919626237756 2.5867472702202776 2 3 0
1273 1 8.783475673600313 -6.706289224749735 2.813356843138204 -1 2 0
5354 1 -8.592327534521647 -5.0702739421013785 1.6629022744026651 -1 -2 0
5448 1 -9.543934761439642 -5.213507834412904 1.996789589528304 0 -2 0
5201 1 -8.834003016686836 -4.932475581918689 2.8066687752245656 3 5 0
5888 1 -7.737613705861109 -5.004347848992703 2.847444284404019 -2 1 0
5590 1 -6.643818782394944 -4.730483671179192 2.8417501060059975 2 1 0
5789 1 -6.709438337582132 -4.571373536858495 1.8085323103466522 -1 -3 0
3470 1 -4.681034236013938 -5.162761505500962 1.8576112817281845 1 0 0
365 1 -5.555431277639386 -4.378503127194387 1.8719700958646759 -2 2 0
5425 1 -3.854776936646828 -5.256451158346054 2.9209632317022938 0 -1 0
5148 1 -1.4801080495129746 -5.5653559511713615 1.6055480238163107 0 4 0
1210 1 -2.435060999984882 -4.696408991746642 2.294177138916438 0 3 0
3693 1 -1.4466552136663007 -4.963259598349562 2.851934002521773 0 -2 0
173 1 -2.82830039501283 -5.602832884211143 2.8899179869919673 3 -1 0
4243 1 -0.8799147430818256 -4.699891946736371 1.7157947119655064 3 -1 0
5540 1 -0.6196936424190256 -5.5514182544281825 2.3144437994542453 -2 -1 0
711 1 0.1373828179479119 -4.473010453056623 1.7194971653518774 -1 -1 0
2872 1 1.0331301452268047 -4.882971335375498 2.0439793074199573 2 -3 0
5904 1 0.23637070769037666 -5.042086777612277 2.8953774716947476 -4 2 0
445 1 1.1270837926947586 -5.563578772123396 2.944242094975495 0 0 0
2293 1 2.8130549209661915 -4.364820901154697 2.3576001061817675 0 0 0
841 1 2.05579845794947 -5.018839588747836 1.6851536299786696 -3 1 0
2983 1 2.10627704621689 -4.980777853819455 2.6681597332177263 1 1 0
959 1 3.5807974962697746 -5.086775974979405 1.705753862816328 -1 -1 0
508 1 3.9432104741484264 -5.406209517919741 2.8323505157827698 0 -1 0
626 1 4.921145012110757 -4.813740668100975 2.0629209587635673 1 -1 0
5323 1 5.184490970954388 -4.646455995104768 2.9552267523098545 0 -1 0
4072 1 5.872004543643767 -5.190270458882229 1.9186371007705254 -1 -3 0
3686 1 6.760583897608857 -5.070318538230747 1.509330342149972 -5 -6 0
653 1 6.59795394185239 -4.775970448549454 2.866522034754177 4 1 0
4742 1 8.007660817861268 -4.779041337021516 2.1149710877117447 -2 2 0
3579 1 8.987344894186519 -5.189487131634863 2.378676067731673 -2 1 0
555 1 9.952398528274625 -5.236966562482476 2.99304621170918 0 -1 0
4135 1 -8.789997079259416 -3.5153756846267217 1.7988113834919768 -1 -3 0
5031 1 -9.921031181825175 -3.539189112477356 2.293334988144905 1 1 0
1578 1 -7.936667938611718 -4.254697609381892 1.7167569882729898 0 1 0
4578 1 -8.287159103605369 -3.811160356373026 2.839076780712181 0 -2 0
3231 1 -7.932493392046126 -3.09034392618908 1.932829504900044 1 1 0
1762 1 -6.429698236278357 -3.7270831293074207 2.7910943977298373 3 -1 0
4258 1 -5.403043534026059 -3.704980775271478 2.925816806710418 1 -2 0
733 1 -4.61842547697332 -4.213863445412862 2.322011847928186 1 -2 0
438 1 -5.119688681835883 -3.464866625242296 1.8697813891812056 2 1 0
1604 1 -4.519996588354277 -2.955515121346332 2.8395767375621497 -1 -2 0
2541 1 -3.683996496546224 -3.3231627066237506 1.953779408829005 2 2 0
4480 1 -2.809674099533624 -3.631572329318685 2.5307857667788674 8 -8 0
1686 1 -1.820632220184644 -3.484337135231486 2.999853648238145 -3 1 0
3699 1 -0.5769070199957701 -4.0909082348847035 2.4790650189360157 0 4 0
374 1 -0.13040462536594338 -3.2209088836305306 2.2952263447281385 10 5 0
4273 1 -1.304858903209458 -3.6087863486292013 1.9054679884826062 5 3 0
2456 1 0.8110156011996348 -3.4908507669504223 1.6265531056755687 -2 1 0
1608 1 0.4282817607666615 -4.02415038701868 2.703815221772484 0 1 0
5119 1 0.9780294916376925 -3.1217085639124726 2.6873869676181066 -3 1 0
2483 1 1.5956308833575958 -3.927514663888139 2.2595893330513057 -1 -1 0
719 1 2.119844784081151 -2.9144499314321677 2.4248205960279265 -2 2 0
1754 1 3.7946279872458617 -4.2593470909743445 2.4841277562009507 2 1 0
3562 1 4.25910802282748 -2.9247261816004086 1.5776556994805113 -1 0 0
1409 1 4.838949863457939 -3.765452626174563 1.9436565711276559 -1 -1 0
4534 1 4.81201587128457 -2.8595615162428962 2.5340818265947957 -6 -3 0
3665 1 6.9869001924156455 -3.1639741149950797 1.9982797385914997 0 2 0
4797 1 8.114232798888498 -3.696745249793371 2.7978708663729552 0 3 0
3607 1 8.132354810354105 -3.104098282043696 1.6508877382424088 0 5 0
1791 1 9.270113716720292 -3.366414871630258 1.531152339086917 -1 1 0
1709 1 9.020232599589379 -3.132813861798156 2.8191366605453303 4 2 0
2602 1 -9.93874624453045 -2.548103108846613 2.740175288798036 6 3 0
1163 1 -9.418366651277646 -2.585794707564559 1.7347788294895712 1 1 0
899 1 -8.45492176793867 -1.953856416306334 1.8402271323433452 -1 0 0
5196 1 -7.972775708804665 -2.467097217210726 2.8534604863992565 5 1 0
2425 1 -7.147145216732762 -1.8291081069427977 1.6246471318116937 -1 -2 0
3627 1 -7.077570602339597 -2.804520007920259 2.5997549965498568 1 0 0
2093 1 -5.776682576460961 -2.8153082599466024 2.26722536451396 -5 0 0
3397 1 -5.815277142449761 -1.9607476468069378 1.6865840793160343 -1 -1 0
2623 1 -6.035328821263223 -1.905928986759263 2.789682563565932 4 4 0
4579 1 -5.097949499175015 -1.9408492599195355 2.428254736894714 1 -1 0
2779 1 -4.509727288540183 -2.6472151366497036 1.619530356392408 0 -2 0
3006 1 -3.306058575038859 -2.4100593631058387 1.6761924829270658 -4 2 0
1552 1 -3.871767763956402 -2.096749303514468 2.676234428318869 3 4 0
2276 1 -3.0064213644661533 -1.471820099486594 2.2560261471906573 1 2 0
2019 1 -2.4798211284657916 -2.5179398474190626 2.2243351943920664 0 -8 0
3881 1 -1.687857892103618 -1.9772132012079087 2.855602511142693 1 0 0
4469 1 -0.6737608880786831 -1.9099611210909613 2.2813696305656013 -4 6 0
4855 1 0.38394796582396573 -2.297637441047586 2.1610775888513594 0 -3 0
3206 1 1.2720981454076215 -2.1465032466297904 2.917950863743747 -2 -1 0
201 1 2.270254720984238 -1.8784174874887687 2.576585860501194 1 2 0
2859 1 2.6068204529066246 -1.5333543387041184 1.6198089884226803 1 -2 0
1783 1 3.6968828022540414 -2.130767812014179 1.7661033749456878 -3 -3 0
3232 1 3.7127665089054425 -2.785038592987468 2.469345612166277 -6 1 0
4978 1 3.197083629306523 -1.7839606776329069 2.890298716737285 -3 1 0
5036 1 5.341927370055991 -2.7798938222043836 1.529994993396735 2 -2 0
2050 1 4.39589961926835 -1.8561610140525977 2.5576627906594944 -1 -1 0
2129 1 4.8512965356033195 -1.8494880778351614 1.609291073821713 -2 1 0
3369 1 6.238388914491305 -2.3327417948512217 2.469995282003759 -2 2 0
915 1 7.185740880620053 -2.0422899865564426 2.372817336675903 0 0 0
2051 1 8.291920496169032 -2.0848351823041797 2.643824041384361 -2 -4 0
524 1 9.405173670782721 -2.440699035587551 2.055143498390353 -2 1 0
617 1 8.9870994969716 -1.502500990213425 2.093376782197053 0 2 0
3720 1 -9.240036252193148 -1.2869961685382585 2.7955615530913667 -1 -3 0
185 1 -9.34182432490474 -1.2411092528752619 1.6275908424800674 5 -3 0
3990 1 -8.68582980791465 -0.5013350894158046 2.9774681223824735 -4 0 0
79 1 -8.538825320718086 -0.7099419078603401 2.014579202351738 0 -3 0
2759 1 -7.532701588979835 -0.3297248665732149 2.0575390961996622 -1 2 0
2389 1 -7.756873980339651 -1.2409871995488 2.502920656299909 -5 0 0
209 1 -6.440446077957219 -0.6340934154265622 1.816030064142159 0 2 0
115 1 -4.39266222449167 -1.1172845731581962 2.827381261373289 -1 -2 0
2524 1 -4.898437852481621 -0.13334598501648492 2.852504511536906 0 -2 0
5849 1 -5.3007836024890285 -0.9620584043211656 1.9055324680287742 4 -3 0
3950 1 -4.0318545078846 -1.0509282081187914 1.5881940810222097 1 -1 0
3348 1 -3.3251801728325545 -0.49117059502275123 2.6319221837244386 -1 -4 0
5298 1 -2.10366603437766 -1.3994342076177098 1.7664815256062034 2 3 0
218 1 -2.426470226394035 -0.4302169570277694 1.973540205927798 4 -1 0
3157 1 -2.25658698854705 -1.0759111877425562 2.923023881111133 0 -4 0
4159 1 -1.3950193225643803 -0.9427786454165722 2.3216502776434234 0 0 0
5573 1 -0.39045752703606934 -0.8170892253243616 2.718439134184021 -1 -2 0
1281 1 -1.3473553415522963 -0.11578289695311966 2.962585970172686 0 -2 0
1023 1 0.3706493720697697 -0.6701607528998426 2.0192647056725312 -1 1 0
4756 1 0.7386851349337327 -1.0778084036177447 2.9448940602079845 3 2 0
3414 1 1.1158788847043961 -1.3635462694761704 1.9421729005704902 1 0 0
1722 1 2.725639662713404 -0.7366196434540113 2.924465381823268 -2 -2 0
2404 1 2.21345033813293 -0.5366490287009239 1.9696349137762152 -4 -1 0
4207 1 1.7124804755437775 -0.6399411110025841 2.883269619220325 0 -2 0
3750 1 3.7507849129414996 -1.0191341141154404 2.350545902074641 -5 -8 0
4294 1 3.302453204381747 -0.12124147973927396 1.9353213559500968 -5 2 0
3833 1 3.672751535566364 -0.09028864831519955 2.989879427543332 2 4 0
137 1 4.713957550955411 -0.1984597308131097 2.741032237352619 0 3 0
918 1 5.483016658090216 -1.1086360694620543 2.5185226391863047 -4 2 0
486 1 5.140386406271321 -0.13639343636630388 1.7589851752052343 1 -1 0
2593 1 7.138361799040388 -1.2319279743284421 1.7440924033986422 3 -1 0
2275 1 6.270398156096826 -0.598622350348942 1.6217251659204701 -1 -1 0
3778 1 6.467084736552451 -1.09742627465632 2.649056384460557 0 4 0
327 1 8.062889107538345 -0.522507766248254 1.6003259521839548 -3 7 0
4472 1 8.29905595388102 -0.5213752287495037 2.784140227232795 -2 0 0
5139 1 9.79517796598951 -0.9802608895267308 2.4023335694646963 2 -5 0
2639 1 9.23186433875916 -0.14248161358325692 1.6963695706275386 -3 -2 0
1028 1 -9.779770399865034 -9.576295287413062 4.351139918930225 1 1 0
4030 1 -9.085316309690263 -9.225645798517576 3.785284056967558 1 7 0
5764 1 -8.610800968894859 -9.904684588257647 4.467186965997457 1 1 0
3609 1 -8.845764983037288 -9.915330282290098 3.060675609410383 -2 3 0
4564 1 -7.17960883219606 -8.729724534282603 4.350192122393172 2 0 0
5115 1 -8.149544891178657 -8.757170618764583 3.2941040672697346 0 7 0
3999 1 -7.700337342670658 -9.902113608341908 3.798217740049839 2 0 0
4163 1 -7.074094820631858 -9.13177842926066 3.2404328714691517 -4 2 0
4121 1 -6.601444104818058 -9.702741244255334 4.3492746870800305 -1 1 0
3657 1 -4.541798584576644 -8.610741250364697 3.688601374380388 2 2 0
5710 1 -5.407432933208382 -8.951673161983978 4.137647882294094 0 0 0
25 1 -4.993504641149956 -9.403872640646005 3.177336272412812 1 -3 0
274 1 -4.5040106614449344 -9.56807306248541 4.238826528195915 -2 0 0
576 1 -2.93870134866226 -9.820412321922536 3.35621335855611 -8 -3 0
4180 1 -3.701936796366357 -9.160549940680257 3.6182447447704464 1 -1 0
584 1 -3.1337846792872592 -9.551529803732073 4.375056355918281 -1 3 0
2237 1 -1.8490103624850092 -9.489496177697884 3.668568772607299 0 0 0
3301 1 -2.4597992561271322 -8.644122190929016 3.864681215572351 -2 -1 0
2620 1 -0.7306005189280634 -9.448205850278017 3.7992072101605276 -2 1 0
5405 1 -0.10812518622842054 -8.732464834105386 3.0443603629695573 3 -3 0
5386 1 1.3752124695634613 -8.840784057241025 3.6053798215629094 0 1 0
4837 1 0.6292218613110995 -9.343986430260259 4.0837192363286725 -8 -1 0
1619 1 1.5448927669693868 -9.8253442836499 4.296876410021866 2 2 0
3601 1 2.511818101597964 -9.04866973230775 3.7539291145348272 2 1 0
1269 1 1.791268377505685 -9.852439606252798 3.1195640202210186 1 1 0
4039 1 3.0622544760461166 -9.950732390678597 3.441382690892265 -1 1 0
4843 1 3.328946585918748 -8.732180436083407 3.2260440759935327 0 2 0
3382 1 3.922422187194027 -9.441806352012337 3.8908350281949673 -3 1 0
3386 1 4.762647169667382 -9.863927729753016 3.5744328551687827 -2 -2 0
412 1 4.991793084609008 -8.681462312606502 3.9038526962177658 -2 4 0
2851 1 5.975108448054308 -9.987185003920693 4.239979139247105 0 -1 0
2960 1 5.9899894968375 -8.857181462709345 3.5350300831754486 1 5 0
2454 1 6.901565366676192 -9.461408069657933 3.7018925660700965 -2 -1 0
80 1 8.359188349660897 -8.72212630698797 3.1230148191965132 1 0 0
1575 1 7.91150469038175 -9.780616727352824 3.305553201425728 0 -1 0
5447 1 7.901282578583655 -9.180240145495775 4.256805678160549 -4 2 0
532 1 9.949096012706004 -8.921251505962445 3.0920074911743707 -1 0 0
5824 1 8.885511344691842 -9.537788833174675 3.5995117491629083 -3 -2 0
3314 1 9.968947995719057 -9.992027019435548 3.184957096854578 -3 1 0
2113 1 -8.970529603519708 -8.092151911510554 3.365801631351451 1 -1 0
2878 1 -9.899106519518073 -7.793537269753188 3.4161984174033444 3 0 0
1947 1 -9.927673694914658 -7.535915555105436 4.458365333910403 2 -1 0
2745 1 -9.524100831366408 -8.409251484455137 4.241964466743293 3 -1 0
247 1 -8.323118857030407 -7.1720967414244 3.5148858834277257 -3 4 0
4926 1 -5.986689689963244 -8.345996671515929 3.500261568365925 -1 -1 0
434 1 -6.860888876808339 -7.245088459005425 4.368793640195194 -1 -1 0
279 1 -7.011041754114367 -7.974142988191146 3.4368376096876023 1 2 0
5787 1 -4.483180868663353 -7.525274800303743 3.0810647126844892 -1 2 0
1237 1 -5.287576641998729 -7.701872310950902 3.9050761086872403 3 3 0
611 1 -2.6220142773862807 -7.582058487558115 3.4100547328699693 0 2 0
5738 1 -1.4740296790118275 -8.037904561022971 3.812139936343908 -3 -4 0
196 1 -0.3472989455890052 -7.521173376635973 3.625714398199347 3 8 0
5900 1 0.5746064300727203 -8.029572791707217 3.8049393342391515 1 0 0
5848 1 1.6969194691855651 -7.879265808160504 3.9991675375461866 -1 1 0
4526 1 2.237940101446843 -7.197853084862799 3.2302382633992055 3 -2 0
3349 1 3.6430890838285634 -7.341927390952298 3.6378287663459057 -1 -1 0
3057 1 3.926157855880777 -8.31763939157364 4.0097203491671705 -3 1 0
4624 1 2.882498939852709 -7.969777441820146 4.004227714258567 1 4 0
4594 1 5.19638762805653 -7.844234938719324 3.2174228952616297 0 1 0
4767 1 4.796050387324171 -7.584711315250002 4.120095223531504 -3 2 0
5663 1 6.764606162240507 -8.193216318616031 3.0954478839830104 -1 -1 0
489 1 5.879939317610471 -7.95721718768594 4.006574347677007 -3 1 0
4841 1 6.9485781515852505 -7.666851175598283 4.206602737984282 2 1 0
4376 1 7.918450789128911 -7.710856027815236 3.308746942678629 -1 -2 0
5889 1 8.330875343369849 -8.31576364386983 4.4178031874300165 1 1 0
1044 1 9.197738267065752 -8.158986718147357 3.0429708696474846 -3 0 0
162 1 9.524993768058138 -8.487175964968484 4.004094647565056 -2 2 0
3169 1 8.907525314400827 -7.593678376378659 4.015247253617737 -2 -3 0
4657 1 -9.313365885521327 -6.872432794967351 3.2028573012835326 -4 -4 0
3140 1 -9.589111175674825 -6.5660267462781485 4.233048569241074 -1 -1 0
1885 1 -8.183179222250397 -6.084989495232075 3.3111166510748364 1 1 0
5305 1 -7.243448071601196 -6.603532007647354 3.3823194601437736 0 -1 0
536 1 -8.060093326222132 -6.880198806168435 4.493636373162226 0 0 0
3425 1 -5.9791082844031465 -6.737222408093587 4.3936522216489 -2 3 0
1177 1 -5.299447630400353 -5.730892146338927 3.5354403750010306 2 1 0
479 1 -5.659785530008453 -6.965568173158732 3.3151543430784702 1 2 0
3004 1 -4.919525672415121 -6.43861542254545 4.424883039798558 -1 0 0
1623 1 -3.6327726109164473 -7.016271756151613 3.70620205639135 -2 -1 0
120 1 -3.8384444184120143 -6.34616921285789 3.030566807150325 2 -4 0
4038 1 -3.8500833311073714 -5.78242088524219 4.033796355433056 -3 2 0
3142 1 -2.56427389577008 -6.614976962115128 3.663799195960133 0 2 0
2934 1 -2.0387342818972196 -5.780769258791786 4.0849581881176436 -1 2 0
338 1 -1.671089042680273 -6.014366472330914 3.0219077654384487 -1 2 0
672 1 -1.3382505377582954 -6.966868302149573 3.9078467825098153 1 2 0
2395 1 -0.02083659547420187 -6.736007070950258 4.173519044409534 0 0 0
5992 1 -0.3868150457673295 -5.715375741876154 3.477152523511885 3 1 0
3981 1 1.308466751227296 -6.787341219281157 4.464074012618846 1 4 0
4349 1 0.9895556216170021 -6.2549403654282445 3.5943873493837213 -3 5 0
1051 1 0.2561368917880263 -5.769609094292547 4.462806169276634 0 1 0
5101 1 2.3388010435115985 -6.94766102307499 4.195580062224431 -2 1 0
134 1 5.394557616773117 -6.951868023106976 3.559919965435698 -1 1 0
5978 1 4.468639623828751 -6.619688449449939 4.059485698715663 0 0 0
763 1 5.383056220518449 -5.9117438396473485 3.4328773670401036 0 -1 0
4269 1 6.421463286729262 -6.7736478393843065 3.7897349862409855 -2 2 0
1910 1 7.561823030065822 -6.259083207715343 3.7275863566490135 0 0 0
33 1 8.53074217653325 -5.796345184311492 3.4819247266300244 -1 2 0
1120 1 8.456244726075402 -6.592110581919688 4.119022641691522 -4 0 0
3545 1 9.585324654804865 -6.839912706244218 3.444321777414747 -4 1 0
875 1 9.397091703587671 -6.408049723848239 4.415436574692502 -2 -2 0
713 1 -9.163589517929086 -5.694549336954231 3.655403643052052 4 -1 0
2138 1 -9.412406583432448 -4.51252426304624 3.6160631833952226 1 1 0
2995 1 -8.35633425862696 -4.46409221755126 3.6962457269547735 -2 1 0
3311 1 -7.5435261195853 -5.335537968420458 3.884125399335749 4 1 0
193 1 -6.322664129587727 -5.337748734395459 3.725692575907027 5 1 0
3613 1 -6.858704655583414 -4.833955320895643 4.473514854469323 0 1 0
1352 1 -5.545452753905403 -4.841478877850037 3.0515083889693235 -1 0 0
5366 1 -5.046471753684169 -4.602887195203518 4.135401728424577 0 1 0
2396 1 -4.009501891363958 -4.656882459424513 3.9071132829373103 3 2 0
931 1 -2.557851611963587 -4.604783803940481 3.4372826383771353 3 0 0
4049 1 -1.2215099409030457 -5.206712590461448 3.8011728558892606 2 0 0
5232 1 -0.7893290422763319 -4.404045900143743 3.5463615709856753 0 0 0
164 1 1.2227310462577572 -5.176996516516994 4.018590829447233 0 2 0
4637 1 1.4281144348076302 -4.474992601247482 3.3553661938756405 2 0 0
1249 1 0.1608757437382495 -4.8117764791049735 3.840685817434072 4 0 0
1786 1 1.9996988916727567 -5.687450664382914 3.620447009357078 -1 0 0
3010 1 2.3482392436500055 -4.714359883792171 3.7473567858597803 -1 2 0
2911 1 3.4328746736042666 -5.38762419393478 4.29686183778119 3 -2 0
3539 1 3.3974343916151235 -4.60568291895922 3.416953640764172 -3 -7 0
3435 1 2.8592427849179844 -5.5269743091886685 3.089588923969287 -4 -4 0
3092 1 4.507561023030559 -4.3981322137606025 3.722558372939163 -1 2 0
5182 1 5.688225472705043 -5.115750474552503 4.280955272939 -2 5 0
437 1 6.619586525665597 -5.610152889295792 3.7521278134201927 0 3 0
791 1 6.022057485349881 -4.4248553889592666 3.6023154684160517 0 3 0
2114 1 6.95737414919012 -4.644853593475012 4.045578502338563 2 0 0
777 1 7.584455465741475 -5.141241551393331 3.0693151155739873 2 0 0
3542 1 7.612445202089581 -5.545137361381747 4.410263841892922 3 -1 0
3417 1 8.910604825604981 -4.86029391764063 3.476299191501083 -2 1 0
16 1 9.87161698509008 -5.279428340930336 4.329332254903197 1 -2 0
1175 1 -9.215910673833964 -3.3787740513761624 3.28113053630668 1 -2 0
2108 1 -9.31625422523711 -2.9226955102824026 4.306907383105331 -6 2 0
2511 1 -7.218604187812431 -4.231023689083982 3.5121373274290275 -4 3 0
1610 1 -8.290600428663934 -3.3061776524365563 3.8205203198658406 -1 -2 0
1497 1 -7.694908826867121 -4.1614447273731905 4.449496421073883 1 2 0
2430 1 -7.2276119426838035 -3.1973174736954237 3.583809524538023 0 -5 0
5744 1 -6.057493353044434 -4.045606995556026 3.8121061240247633 0 0 0
234 1 -6.756489660699155 -3.501238528822588 4.462091361760718 -1 -1 0
624 1 -5.498035741587441 -3.1689852941586785 3.8950902061998764 1 -2 0
3668 1 -3.7134550496454426 -4.111449858212955 3.094221013598251 -1 -2 0
3779 1 -4.233048187242303 -3.4638893575204066 3.7705829433718727 1 0 0
4789 1 -3.5533136541046075 -2.904165657392737 3.2094609918909476 1 2 0
3359 1 -3.0191961469727246 -4.249897773635399 4.304754477722461 0 0 0
4661 1 -2.9018656587293084 -3.336090650182046 3.834429303298414 1 -1 0
2250 1 -1.8793107932028432 -4.099252601679544 3.954138354615798 3 3 0
4662 1 -0.058590234867594675 -3.512778866562343 3.7923113098789285 -2 0 0
2223 1 -1.2131106888709058 -3.236982369736734 3.8932545484013077 3 0 0
406 1 0.71900107386948 -3.074830646054238 4.402852410499254 1 7 0
3818 1 1.4498539535836754 -2.940774358467648 3.556066361835215 -1 0 0
5365 1 1.4969962198676072 -4.042999793918489 4.336636186046273 0 2 0
1157 1 2.56313258512439 -3.6768788181488303 3.1821320665085238 2 1 0
5271 1 2.789807324179718 -3.187165500774628 4.445113013846916 1 1 0
5122 1 4.09424930903179 -3.483864518999841 3.1128533015940425 -1 -1 0
2018 1 3.6169950460294147 -3.869280340198627 4.131402625629841 2 -1 0
1551 1 4.62522151936017 -3.3439721518116294 3.961850847519807 1 2 0
2913 1 5.266081016047563 -3.6387542163992985 3.1779922169191543 -6 -1 0
3209 1 5.326098378694272 -4.0369094149817375 4.397221219564922 -2 0 0
5598 1 5.9956154175634495 -3.199265670806171 3.736344955651576 6 2 0
1505 1 6.97745177486597 -3.766585042091335 3.3144902453417235 -5 1 0
3424 1 7.575720145450659 -2.8716775021733127 3.099036202106655 -1 -1 0
2387 1 7.947852136644923 -4.26595988823107 3.7532070091366934 -5 0 0
3696 1 8.564044666786154 -3.322671973571463 4.1375941314108236 0 -2 0
4508 1 9.497266214997186 -3.998378917759693 4.136042341882071 -2 1 0
2344 1 -8.954422763089362 -2.322230377405615 3.3715551140090714 2 -1 0
1456 1 -9.912862169136302 -1.8381336315082235 3.5798759407204814 -3 5 0
1328 1 -8.716603637509598 -1.9024884867616527 4.36309359956175 0 0 0
116 1 -8.31285531142262 -1.4622217754331408 3.414246579458292 1 0 0
5231 1 -7.81960155473157 -2.2622941062542634 3.9030973508185216 -5 -1 0
2605 1 -7.090028379472395 -1.9122719596628726 3.3299954702111942 0 2 0
5469 1 -6.353294638460021 -2.6826523675095006 3.3556402816951882 1 5 0
462 1 -6.867135464406463 -2.426429433661639 4.456239742479753 0 -2 0
4042 1 -5.752460054736626 -2.2555954551917754 4.324421272173501 1 -1 0
2422 1 -4.464765366796727 -2.672139159550972 4.34036354849441 3 -1 0
5544 1 -5.385317362656504 -1.459294233471295 3.503033498935142 -1 0 0
4860 1 -4.95069394043769 -1.6943355732791099 4.487682244118686 1 1 0
269 1 -4.480916407944444 -1.9968892478983038 3.4787290484086775 0 1 0
5936 1 -3.348482757781405 -2.1027830643646634 4.082656785593758 1 4 0
727 1 -2.7794984463861767 -2.1940943225847223 3.1683108814669465 0 -1 0
3264 1 -1.4986058594600704 -2.096854784442441 4.194471501223019 2 1 0
3567 1 -2.3756966434496825 -1.5651278078841782 4.061208645173698 -1 2 0
5502 1 -0.9142665637597606 -2.843799898709009 3.0520281517771575 -1 2 0
3652 1 -0.6577624839048715 -1.7910590209544717 3.488439815495553 4 -8 0
2580 1 -0.24036784330254315 -2.6523910142480043 4.309698616731642 -1 3 0
2662 1 0.5134411665458568 -1.7811499383512197 3.796671905659444 0 -2 0
4184 1 1.2971201145582263 -2.007120495258088 4.409668275754915 -1 1 0
280 1 2.037567518578697 -1.4841642900374998 3.5180287107353623 3 -1 0
3373 1 2.5403356488228748 -2.5465123727575487 3.5140321117149433 4 2 0
3771 1 3.6021180237359376 -2.313241684380086 3.992974234827765 -4 1 0
4290 1 4.572485894397336 -2.2533115986788093 3.5429175587509567 3 -4 0
4100 1 5.554407251646345 -2.2958885600532954 4.040893446879951 0 -2 0
125 1 4.675593536763365 -1.449637896852249 4.2821842960704 5 5 0