LAMMPS data file via write_data, version 22 Jul 2025, timestep = 2050000, units = lj

4000 atoms
1 atom types

-10 10 xlo xhi
-10 10 ylo yhi
0 60 zlo zhi

Masses

1 1

Pair Coeffs # lj/cut

1 1 1

Atoms # atomic

3157 1 2.770695188074282 -9.963235488823022 1.4251397110127282 3 3 0
3409 1 5.3845347288176395 -6.943944963535977 1.3959905112224384 2 -9 0
3938 1 -9.270154294856157 -8.986514832398594 1.6541903701450227 -1 4 0
1906 1 -8.268546759895532 -9.601169823222023 1.4327010325180947 4 1 0
1524 1 -8.501066132290136 -9.380505748311597 2.4803236827269974 -4 -6 0
2758 1 -7.3721954124062 -8.601530491768141 2.247867620195027 -2 0 0
419 1 -5.7726464862368 -9.901078320025654 1.5891965489157445 -5 3 0
2229 1 -5.291462986369509 -9.53263283143871 2.45551101228211 -4 -5 0
1194 1 -4.362640430487367 -8.940229228122979 1.9598417972922746 5 -2 0
1186 1 -3.405320658801877 -8.620005172642431 1.8856791181600123 -5 -3 0
2593 1 -3.515161266271277 -9.73957914363038 1.790984537680483 2 -2 0
1861 1 -3.932179797532189 -9.706053115521312 2.6745733655664106 -3 -1 0
2166 1 -2.166670744218403 -9.122701173870983 1.6760157872697015 5 5 0
2088 1 -2.8339991530369315 -9.66053265427081 2.773774958849054 3 0 0
3386 1 -1.7896294256790484 -8.757878439027378 2.6262063018990034 4 7 0
1904 1 -0.8664408541995381 -9.286076242219544 2.032695299735084 0 -2 0
2796 1 0.3861101354297392 -9.098197590633205 2.4203234125925106 -4 -2 0
2555 1 1.6253111767529833 -9.972341580754293 2.1724994544848704 6 6 0
3456 1 2.4849335885479773 -9.096637538043243 2.0750983303197397 6 3 0
3758 1 1.6326550353987799 -9.180462790049262 2.799989168839301 -1 2 0
2896 1 3.6132316548524366 -9.172486616142605 1.98932839522439 0 -4 0
1360 1 4.7988071361281825 -8.942387275226645 1.8566508779088329 -4 1 0
3180 1 5.382676298502079 -9.466246861689385 2.5735151918268806 -1 -1 0
3358 1 6.128732476271504 -9.542258002231584 1.6850065721820533 -6 -6 0
2160 1 6.917964231704758 -9.286225096535988 2.674251947419043 1 6 0
741 1 7.724958269740267 -9.550327663057498 1.4473222476190555 3 0 0
920 1 9.617826958196186 -9.13899617276008 2.2283448549993183 0 1 0
3421 1 -8.97826217213329 -7.609132833789453 1.8575345722556535 3 0 0
3744 1 -8.396503540830006 -8.545494971929125 1.6497260692460582 -5 9 0
2352 1 -8.140542435074785 -7.820209524539724 2.685209762048914 -5 -2 0
3081 1 -6.233001944141823 -8.521861811144891 2.3278168804717843 2 1 0
644 1 -6.965144921128588 -7.56609182120961 1.7651064601742072 -8 4 0
1920 1 -6.991453887053635 -7.866882075689783 2.7892423502405985 0 -5 0
237 1 -5.1935485915621955 -8.45131570840481 1.4863752840337343 3 -4 0
2251 1 -5.283693277511097 -7.287289984507101 1.7820879913568037 2 4 0
2099 1 -5.193352276500779 -8.245452667436771 2.6326393472795004 -5 1 0
1911 1 -4.219253123506557 -7.715134253361075 2.437154256957343 6 0 0
1134 1 -3.3500389090238234 -7.453385559180353 1.7276272655874119 -2 -1 0
1306 1 -1.6807180022681814 -7.227264010284965 1.6991136320344 -1 -6 0
2091 1 -2.4505916822649545 -7.977701139063806 2.124632837894586 0 -2 0
1355 1 -0.8826431907656651 -8.143898441714702 2.0783089797925896 -6 1 0
676 1 1.0323376636113024 -7.95562270075215 2.3663916334574857 -1 4 0
3624 1 1.3230122019997783 -7.145588905444729 1.8404535471086585 3 8 0
2791 1 0.27750980610529974 -7.285880940355072 1.6971503036659412 4 -1 0
3158 1 0.02845000755919346 -7.917192177235722 2.6563321019638257 -1 7 0
493 1 2.5724942192381572 -7.329522980738727 1.752426983483521 -3 -1 0
3088 1 2.081326246363565 -7.999576393145259 2.6606845358752835 9 -4 0
2148 1 3.1216387234702605 -8.31716685478449 2.600800430609383 1 7 0
2439 1 3.5287424722154066 -7.978601855180104 1.4745234019927467 5 3 0
1966 1 4.173327308627985 -8.021019935330406 2.4124545063901532 -4 -3 0
3126 1 5.6078349959614435 -7.2686949304423605 2.522837913578178 0 -1 0
1500 1 5.777693486233863 -8.527480096326114 1.957537752852227 0 4 0
3195 1 6.469457495360513 -7.860862115272505 2.551414036441263 0 -4 0
3075 1 8.557914342840542 -8.06991969430504 1.9966694854040354 1 0 0
1272 1 7.372019551894366 -7.277070552586686 2.2005408385235694 -3 8 0
3360 1 9.974102502822925 -8.087221225630692 1.889954205830556 -1 -5 0
2393 1 -9.603492293668689 -6.82757288887804 2.372199397854538 6 -2 0
1413 1 -9.004682873070115 -5.850126065722036 2.728326936099413 2 1 0
1474 1 -7.3515959152376995 -6.02419557385317 2.531918229668002 0 -4 0
1680 1 -8.342251156213381 -6.751060602784823 2.2388163711657136 4 -1 0
566 1 -6.283112532887144 -6.799677753858931 1.5417460067781463 -2 7 0
1829 1 -6.140615794831596 -7.012118191466029 2.5288196183081086 3 -7 0
372 1 -4.342276888432463 -6.459385139360946 1.6838002000522858 1 9 0
268 1 -5.572695249204832 -6.231694205034453 1.8130653716814356 1 0 0
1422 1 -4.424760019424535 -5.724128546621267 2.4897392814626396 1 1 0
3795 1 -5.089535339870609 -6.73473472913607 2.7162676348461763 -4 2 0
468 1 -3.1260298281327117 -6.3816785163872884 1.5664236030371248 -2 4 0
2713 1 -3.830924203925668 -6.669895030915822 2.685522156672822 2 5 0
731 1 -2.4064149912513373 -6.893079827133596 2.7108319023268983 -3 3 0
1342 1 -2.2447279079038878 -6.041218963688514 2.1761047056980245 3 -4 0
3478 1 0.020873797225153673 -6.079059343705916 2.7178281556114228 3 -6 0
483 1 0.45739612978761823 -5.986797327696939 1.4636217737497037 -1 6 0
1683 1 1.330291260470623 -6.078676515258019 2.3790464685288395 1 1 0
471 1 2.4915881690738444 -6.714801230810527 2.6395866113953272 -2 -1 0
1457 1 4.067113738901544 -6.834434662481731 2.3064246972479605 -3 1 0
3452 1 3.0849470276593087 -6.170811937763264 1.8695250282832372 -1 2 0
3062 1 5.385968532821492 -6.288091426633932 2.5754964985689837 -4 -5 0
960 1 6.505535530754592 -6.550436444277819 2.573214348362885 6 2 0
294 1 6.376173358294394 -7.140194472500919 1.549732989092851 0 -1 0
2290 1 7.547970317668346 -6.498146872561998 2.744298719527871 -1 -1 0
3666 1 7.150148123352206 -6.258864957329643 1.7424634551816303 -4 5 0
2708 1 8.39142968349806 -6.6524952113507405 1.9144897943395165 -2 -2 0
1625 1 7.984278765724278 -5.8524044459790625 1.4306307843058987 1 0 0
3318 1 9.05000310479622 -7.062974184945652 2.8453261271725343 6 -1 0
3247 1 8.867058946445946 -6.0706522345828695 2.7982716477469283 3 -1 0
1340 1 -9.71899525931859 -5.663550501742743 1.9789695576874764 -1 7 0
1603 1 -9.80346692398198 -4.651936044290737 2.1090928094466697 5 -2 0
990 1 -7.395001621028487 -5.126201872467829 1.7138020409253447 -3 3 0
176 1 -8.440830988555842 -5.637118587073257 1.7749563707048985 0 2 0
2149 1 -8.20793519393247 -4.93774508576352 2.833202678859321 1 1 0
1756 1 -8.374602475248018 -4.645870685204122 1.904879604884715 -2 4 0
3222 1 -5.99500217447259 -5.2014470368107 1.5998558641760496 1 -3 0
2836 1 -5.2237841504014675 -5.161237537871027 2.777915866994268 -7 8 0
3017 1 -5.173581661539986 -4.323495586395627 2.0582878672262086 0 3 0
2241 1 -4.106537087021273 -4.518113619013332 2.3989419955987494 -2 2 0
1052 1 -3.333734479603913 -5.466833869987126 2.200919198739876 0 -2 0
3767 1 -4.036416255245507 -5.27408865579476 1.4751945952475427 -2 -5 0
486 1 -3.182751960509164 -4.492015099842052 1.8472290538290501 1 -4 0
1386 1 -1.5064549775136187 -4.763249046286827 1.8868309099299652 -2 -3 0
1570 1 -2.342260797263594 -4.910384172269352 2.763924777293375 4 1 0
3458 1 -0.517930722416964 -4.8920889829687155 2.5868373596106533 2 3 0
2548 1 0.6604258820838181 -5.310799993892512 2.521338095106203 -1 -4 0
3459 1 2.1608910517520696 -5.501353309268143 1.7011823171381644 6 -1 0
2207 1 1.7475296061291994 -4.59798263564858 2.5055437785616697 -1 -2 0
2303 1 4.057945751054792 -5.657862718557358 1.7952902586988078 7 4 0
1545 1 3.9578172623518593 -4.701869532944636 2.674000765129335 -2 -3 0
3428 1 3.5219106175545 -5.629948385564795 2.770848985351273 -7 2 0
2024 1 3.331645115402027 -4.672751580311485 1.7808363584135138 -1 -1 0
2452 1 5.686001133193563 -5.49457639187223 1.8835635700627604 5 0 0
3915 1 4.851652598770404 -5.242231575227953 2.7904354931592255 2 1 0
236 1 4.394759500266732 -4.709667406320791 1.7160516749224866 -5 6 0
2419 1 6.683751334667807 -5.440082587859016 2.634308006321563 3 1 0
1967 1 7.268832558955161 -5.024316667217872 1.681168705435183 0 2 0
547 1 7.961440906208694 -5.5624335663780275 2.4426777542881117 -3 -3 0
305 1 -9.268091912471851 -3.987209302656743 1.500006255515257 0 4 0
3438 1 -9.588310145706185 -3.177565403533546 2.3148034947587566 -1 1 0
1204 1 -8.851970184099443 -3.788079602489484 2.765995483303732 5 -7 0
3825 1 -7.813152139712337 -3.8680564362747925 2.447319260135328 0 0 0
722 1 -7.820700526575788 -2.919186097025823 1.869796325168038 -6 -4 0
2430 1 -5.955519209877814 -3.9247035547509546 1.6083791066192212 -2 -6 0
3377 1 -6.664533087445484 -3.570200510932962 2.2139611973470736 -3 0 0
2983 1 -6.107373140268815 -2.881898742191461 1.6193407028359594 -8 6 0
3918 1 -5.116604188644966 -3.0361774213793473 2.0758395417142546 -10 -7 0
116 1 -4.597734820257349 -3.6773918648022317 2.7071525736119364 4 0 0
1851 1 -4.228668491176939 -3.2758514443490516 1.687004045620167 4 8 0
3893 1 -3.0181452209350375 -2.869922940313472 1.7749389520137655 1 -6 0
1947 1 -2.358214503382765 -3.6918327712222756 1.8082541981353326 -2 3 0
2324 1 -1.6598655011668242 -3.8567194860554874 2.7245054396927677 -5 1 0
2581 1 -0.06795659074312745 -4.261794582022647 1.7502983886793333 -4 -4 0
3024 1 0.0034997703965486777 -3.109761129055765 2.0985494760210397 -5 -1 0
2987 1 1.8117715418018134 -3.5028151571366664 2.1409223441725134 5 1 0
1678 1 3.006166816332869 -3.175554904599561 2.527905432438883 -3 1 0
2828 1 5.1653377533849785 -4.181061216607736 2.7718444999622602 2 -5 0
3928 1 4.700263369996944 -3.0907116031536317 2.3180040158488637 10 3 0
2294 1 6.531115967357813 -3.8971780825568225 2.2339735663065565 -1 3 0
2781 1 8.06472454650675 -3.9742650893590827 1.9491800403477546 -2 -1 0
274 1 8.628736161406296 -2.935849059123896 2.097615223566791 -2 1 0
568 1 9.358536667099983 -3.7465045140406015 1.9683748899224154 5 -2 0
1885 1 -8.717422248266045 -2.6608460937090603 2.7318463784144846 3 1 0
3738 1 -9.337024067291024 -2.007866477716016 2.20759436447644 0 -2 0
3681 1 -7.218721180906991 -2.1162952288469934 2.272960134657472 6 4 0
1889 1 -6.795671995282172 -1.7248887214328181 1.4944674053009093 10 -9 0
2823 1 -6.047080977269718 -1.7268835674094976 2.2988604775595385 7 -3 0
1775 1 -6.303626051291521 -2.61428082454697 2.60455538454306 -2 2 0
3240 1 -5.115303646437665 -2.0888112986113074 1.5861371968682516 1 3 0
1387 1 -3.32783183908178 -2.4550701127221446 2.7547932377962177 3 5 0
1187 1 -0.7629112113414818 -2.4882867454143596 2.3944679673769804 -9 12 0
1458 1 -0.7406100716911006 -1.509916427363697 1.9885159142777142 -5 1 0
3713 1 0.35282937255440466 -1.6702554646276266 1.46095644088212 -3 1 0
564 1 0.8320393758755509 -2.438613173571275 1.874549001444033 5 -3 0
3749 1 1.3717045211794754 -1.5452863404190091 1.840041421435273 -7 3 0
2110 1 0.3801227767297773 -2.179355265555681 2.809955697471789 0 1 0
3798 1 1.3968123139018196 -1.767979759461795 2.8283879752601577 2 2 0
2307 1 2.1012662470849905 -2.4470938154434205 2.0583592983009247 -2 3 0
390 1 3.9813648838423616 -1.4905222450173392 2.595754947730833 -8 -3 0
942 1 5.652153196281938 -2.545006359758082 2.7787101695145977 0 -1 0
1939 1 6.621825335054818 -1.9436323932083612 1.4975203367072825 -3 1 0
2459 1 6.724220374844921 -2.6434365736772603 2.5911516572540325 -4 2 0
522 1 7.905104753983181 -2.091530270330693 2.077303505208648 -5 -3 0
3709 1 9.584135316463321 -2.6873079165367204 1.8291105666495564 -3 -1 0
1117 1 9.070350460541908 -1.5942732780001463 1.6297316928803462 1 -5 0
2314 1 9.614066133014665 -1.899790895860277 2.666449001283729 -3 -6 0
2724 1 -9.774110764077157 -1.1696834381313421 2.389761447907381 0 0 0
1191 1 -9.884371145689789 -0.12494576864491952 1.921842193174608 3 1 0
2156 1 -8.89309126702767 -0.9375489630139157 1.611774415152567 -1 -6 0
2233 1 -7.959222035697156 -1.255457277427287 2.6904799836834834 -6 5 0
3696 1 -6.917246897880015 -0.6631864776970995 1.7310208284679514 -1 -1 0
927 1 -6.173251044814335 -0.14339738648738795 2.281251897007838 -6 -4 0
3815 1 -5.296129897034052 -0.6594682691134598 2.7229009344201667 4 3 0
2460 1 -4.523122255276792 -0.09481333536737455 1.7529715765021736 -1 1 0
3885 1 -3.4416872687082307 -0.844715340250578 2.813200607150781 2 0 0
749 1 -1.4632593230000814 -0.14830112267763246 1.8295621348017141 -1 7 0
3805 1 -2.6724242395163142 -0.2237441309839295 2.586166851031617 0 -2 0
2849 1 -0.34900596570370224 -0.20678147831687752 2.08912328938718 0 -3 0
3015 1 0.2593000946706292 -1.222131244589898 2.433814719601798 2 1 0
2877 1 1.0100751068570644 -0.4735462299274646 2.7026831310726904 1 -1 0
164 1 2.2689208690805036 -1.3166096848911073 2.682212801015002 2 -1 0
3194 1 2.5759615048504934 -1.0759682579198913 1.6347384960861577 -3 2 0
2448 1 3.519035384784147 -0.5988476847154732 2.8536390913881804 -5 6 0
2247 1 4.398217253911998 -0.24176316467496914 2.007777641052952 1 -2 0
2161 1 5.487199336617014 -0.3811927564679969 2.0035710499555193 1 0 0
750 1 5.404708539371365 -1.3582795069145668 2.4048512890153475 -5 8 0
888 1 6.4011278926776045 -0.18072158622743273 1.5301895096537845 -4 0 0
3770 1 6.586955840849349 -1.0407952430105873 2.28030271766556 4 3 0
2881 1 7.447324634990429 -0.9720666530760004 1.4670488603589882 0 0 0
61 1 7.174386164534603 -0.3836362871716048 2.7791816438131915 10 0 0
2345 1 9.233060763191132 -0.3744932988237699 1.5666365247787666 -3 -2 0
1643 1 9.110960909197589 -0.8635082491429952 2.4656743957939904 -1 0 0
160 1 -9.886636236089725 1.0533174044762441 2.5555126607062406 -3 6 0
984 1 -7.2424665875953 0.13519369876607723 2.5462253221115514 2 -1 0
2666 1 -6.169571029578909 0.8760229743826616 2.7858689843972537 0 0 0
3959 1 -6.735570715835474 1.0778037327409147 1.6683894062286468 6 -2 0
881 1 -4.316921711149062 1.1069498242142828 1.6544872284328294 -1 3 0
2746 1 -5.517730148898904 1.263684228705863 1.775175144254418 7 -9 0
2787 1 -4.610285124147592 1.1745097908863742 2.7772016168849634 1 -1 0
3132 1 -3.193190231358633 0.34647588627850484 1.9306098537635425 0 2 0
1662 1 -3.9581821337795486 0.1950099579697297 2.7163225086368965 0 -5 0
1439 1 -3.6127822250725035 1.227622980261553 2.386827980831205 2 -2 0
1326 1 -1.981214322930898 0.7038328860466305 2.674430007200295 -9 -4 0
165 1 -1.5682878713014132 0.9147368609960352 1.7720073242565775 2 2 0
834 1 0.5600970274073537 0.48761928235635155 2.3238110459895367 1 1 0
2341 1 1.8064026413579766 0.8590719100839798 2.835563200868215 -1 0 0
1409 1 3.408525407638499 0.013303863635431151 2.001775738009432 2 -3 0
2213 1 3.2488850328377055 1.299965993987052 1.6766830713800398 1 3 0
3291 1 4.101391705079455 0.7813692385035558 2.4640839538009063 -2 -4 0
695 1 5.117424448666249 0.6354641080414651 1.81134023109848 0 2 0
1924 1 5.650666488399818 0.8049298897024049 2.6662323412557134 -6 -2 0
1672 1 6.783180813269735 0.6802231282115392 2.8429933143816677 4 -2 0
2650 1 7.379124477074832 0.05927058995475669 1.8105501208230117 3 7 0
1532 1 7.755241117664639 1.2774921665474108 1.792368892850806 -5 -2 0
3929 1 8.032695641753987 0.36852661089686767 2.541334608321757 -1 3 0
2690 1 9.507222992646406 0.32493193587478497 2.763346052144091 -1 2 0
1224 1 9.35454859254856 1.2911161551723214 1.7838004220876498 -2 -3 0
3843 1 -8.798757328057407 1.9072924780831042 1.977238579051917 1 0 0
3607 1 -7.906272190012171 2.6537068016355474 1.436927624177381 -2 -11 0
228 1 -7.518811324419553 2.7712010425894253 2.4623822762325855 7 2 0
2675 1 -6.563227071000409 2.07451258055568 1.852666365812035 3 -1 0
3027 1 -6.1994525950497 2.8237765948651954 2.489267038006154 6 4 0
3847 1 -5.069185001012414 2.8405418607669826 1.6468955650912802 3 3 0
320 1 -3.5566626868044033 2.572659261654376 1.9210725483596427 4 -2 0
1800 1 -2.500409705018958 1.5910045109002795 1.7276067710258598 -6 1 0
3123 1 -2.4350256269856003 2.3381217699787054 2.3984913857155576 1 -2 0
3987 1 -0.2695910265275839 1.4374424907658665 2.573781005669821 3 -1 0
3418 1 0.7797825043869102 2.4342521144314815 2.1006567361759116 2 0 0
2661 1 3.5233373977564657 2.529033822791356 2.0180648858654644 -2 5 0
263 1 5.661240807239058 1.6421849194803204 1.6863655305241159 -1 3 0
941 1 4.526308234632473 2.0300243922897394 1.670415637429422 -7 -4 0
2524 1 4.551668853511621 2.7554902314905316 2.539874944808087 6 3 0
3511 1 5.515048333053133 2.3475540939675232 2.425609418800604 4 -4 0
1535 1 6.642723314725852 1.5323358656547783 2.146128975769081 5 1 0
3594 1 7.001150232895254 2.5809842505813054 2.8106896707568247 -3 -9 0
2786 1 7.691862267332369 2.405029626085668 1.9936754406952049 2 -1 0
3743 1 8.502363795445001 2.8074464504483103 1.636659732529986 -6 -7 0
2398 1 8.603361044664227 1.995283465266715 2.6351107633580626 2 0 0
1810 1 9.447309569444254 2.60803516961074 2.248498236398525 -1 1 0
101 1 -8.592225134393264 3.099505674468152 2.7365659899994945 2 0 0
2925 1 -9.75332226263914 3.377579912732125 1.9288206186400938 0 3 0
3998 1 -9.350253979881844 4.242537874663152 2.6371879714987307 -4 -4 0
1746 1 -8.256769644177968 3.645769213555319 1.6819572692706053 -3 -3 0
3674 1 -7.829096448189798 3.8297222768120998 2.6285394686960055 -15 -6 0
1752 1 -6.589368902763745 3.765481835157114 2.537131232030798 1 -3 0
1124 1 -6.81715372177839 3.3217599087409786 1.7051602969698534 0 1 0
3239 1 -5.310891727463485 3.3023095858114 2.653971082127437 -1 -1 0
3185 1 -5.363218824391414 4.246342408069656 1.5702160130123242 -2 3 0
1597 1 -3.624938871090001 3.685696484104101 1.4801978329528274 3 1 0
3335 1 -1.8529210334303232 3.0926980981970145 1.5081260222037898 -6 -1 0
349 1 -2.623469069937416 3.619974312504283 2.133151844059163 3 -1 0
3342 1 -1.9020628023952535 4.014879998217404 2.6771210191658206 -1 7 0
94 1 -0.8415606047056146 3.847739139577706 1.6983777905793098 7 0 0
1813 1 -1.4201658062268865 2.988169447613101 2.6691148092305688 4 7 0
1026 1 0.1847680311016838 3.9216981391645063 2.286278987533261 11 0 0
999 1 2.0237828945536127 3.6480612559357373 2.1433382969844827 -2 -3 0
2575 1 3.0333381280327565 3.724562266208344 1.8030486147857832 4 -1 0
2284 1 4.545308807490987 4.078587294275765 2.1844984924755577 3 -1 0
3691 1 5.295918817746604 3.2298254526122063 1.6860574604610787 1 1 0
3506 1 5.521964648006882 3.41181262885437 2.7740620840955637 3 1 0
395 1 7.704253263010013 3.4877651456881504 2.174901204447505 -7 1 0
3248 1 8.135974971915756 2.8937853216659732 2.8568772387395116 -3 3 0
3917 1 9.26344300667249 3.838932723452128 2.0747914452694767 2 0 0
1903 1 -9.409340778541898 5.264394758694118 2.7736592988128663 -9 -4 0
382 1 -8.40684941764901 4.700060196070508 2.1559573512279546 4 0 0
2976 1 -7.875495901981899 5.5882450987129655 1.8271841433324207 0 6 0
2464 1 -6.637649225042329 5.392210819911721 1.4773409244278755 2 1 0
835 1 -7.126149885751405 4.537332522331493 2.040549518148092 2 -1 0
1445 1 -4.768353619450781 4.890787178950455 2.1362037370392786 -4 -3 0
3649 1 -3.0668929203178803 4.618423759828743 1.8372680564997395 2 -6 0
1842 1 -1.8955235101901131 4.986011041245908 1.9373600710375052 -3 7 0
3390 1 -2.7191065460282537 5.685936327093065 2.2447104211039024 5 -3 0
1001 1 -1.265601556512111 4.798296969926517 2.6822333624395482 3 0 0
3416 1 0.9848457026328495 4.648017814829872 2.43081635085413 7 -7 0
2070 1 0.2780113090088034 4.944415864515049 1.6978468809632952 -4 3 0
3618 1 1.6485040388134036 5.207476615845228 1.62456174176551 -4 -2 0
3273 1 2.5137325578520175 4.716971503534647 2.382301051279967 0 2 0
322 1 3.7459498304646397 5.054656266477059 1.9424681082637822 0 3 0
1745 1 5.362254746031829 4.441315313272514 2.827503165989196 4 -5 0
1687 1 4.543708783800979 5.057174779625125 2.568422869271789 -3 1 0
2879 1 6.27467888866701 4.9035352023768395 2.380944682276877 -4 5 0
2669 1 6.809055322058807 5.637867360360454 1.4697003293824484 3 -1 0
3485 1 7.753286916586459 4.661201993951341 2.340898786196552 3 0 0
691 1 8.478966126555335 5.610530780644151 2.47592121433108 -1 -4 0
2834 1 9.889705714318042 4.5674980399783776 1.6263103603276128 -2 2 0
1254 1 8.74705891304793 4.721814070202147 1.7110822105657353 4 -5 0
3288 1 -8.79933009689846 6.111523300294399 1.7355774867732838 2 1 0
3079 1 -9.981896757705835 5.996009254408098 1.8695356889031414 -1 0 0
2654 1 -9.417955136321272 7.141969479443791 1.793767920903214 7 -6 0
2298 1 -9.293542472063482 6.337589409096832 2.620406533399081 1 -2 0
620 1 -8.12918961074121 6.590438790826068 2.5620239122496784 1 3 0
3170 1 -5.758482893551571 6.756364202128946 2.1905694693065065 0 0 0
45 1 -7.05558705264566 5.714805365616823 2.576082614398347 -4 -1 0
980 1 -1.7139042134687181 6.991909566786362 1.783497887288094 -5 0 0
900 1 -1.6496783911124444 6.5168341260481775 2.7342555893881526 -5 6 0
420 1 -2.7276303802096264 7.138267142616967 2.3512524521207365 1 -3 0
1908 1 -1.104151790166282 5.76908728411933 2.0703389343878946 2 -2 0
1002 1 -0.19715251941100578 6.252507502060851 1.9898055069112137 -1 -3 0
3820 1 0.45703669316132517 6.837597981657699 1.5160343614404581 -1 -14 0
2299 1 0.8889614843676071 6.73736597238439 2.5144739128791813 3 -5 0
3809 1 1.106446856914508 5.75414699941347 2.4623053006729876 0 1 0
2772 1 2.7737890540931796 5.731272321006564 1.9048168231730174 -6 0 0
1004 1 1.5653504834695713 6.454833649502582 1.7233868894475108 -2 -2 0
2135 1 2.0479654716509437 6.223745341442823 2.7988321585264546 4 1 0
1517 1 3.4525521224241293 6.594877055358084 1.6068853356260029 -3 -4 0
1171 1 4.130729293574208 5.970283329262205 2.238400616183944 2 0 0
2132 1 4.676487002331672 6.964113601205011 2.054794183048509 5 1 0
1782 1 5.167977057235823 5.835667642286845 1.8410191602425672 4 5 0
3835 1 6.7786909775020465 6.004393425222954 2.489829584697835 -1 -2 0
2358 1 5.963020105375846 7.14189650487289 2.2370503676995037 0 -5 0
2391 1 5.786440232097644 5.829877149055337 2.8497074704170613 -1 2 0
118 1 7.640066612453089 5.929989098052039 1.90679495292607 -7 8 0
380 1 -9.54171385533957 8.176878621905654 2.396332155547686 2 1 0
3982 1 -8.670882390902431 7.409606506272727 2.8179060475230946 -3 -9 0
203 1 -7.679991320446366 7.756919945858451 2.6464746159700763 7 -2 0
1075 1 -7.980896155977365 8.423136011214677 1.5935345054452226 2 -1 0
1302 1 -4.791640429850156 7.930467117898668 1.6269843528530927 1 2 0
10 1 -4.078720225794419 7.335150537621313 2.2915591144051235 -2 -7 0
3762 1 -3.069225712616859 7.703818346637125 1.5297295830366253 9 -3 0
866 1 -3.6048831393820255 8.295311741150533 2.1639223266407956 6 2 0
1287 1 -2.6719898466652388 8.429457597990602 2.5702968088480023 -3 2 0
1608 1 -1.5334133776591452 7.619814323671268 2.5619932347193535 -3 4 0
37 1 -0.48978172451647217 8.244530329759762 2.2396230068000307 -2 -1 0
1837 1 -0.5224864293665583 7.197205996425571 1.99691747970774 -1 2 0
1155 1 0.47039313872899063 8.104982004846208 1.712071078914988 4 4 0
2343 1 0.43392448150705 8.316086682033646 2.7350957642552083 1 6 0
2753 1 2.1953754068631604 7.37669352132306 2.7273752573953316 5 -2 0
3549 1 1.8770758831126606 8.197184172404537 1.868699922619253 -1 0 0
3720 1 2.7383196334704496 7.453067528924699 1.6644669831642598 7 -5 0
1853 1 3.2819494255987127 7.364067876235783 2.5827291408048585 1 -1 0
284 1 3.974518485556012 8.368054061791895 2.4271520070535253 -3 0 0
1036 1 5.133810303250908 8.483236470726524 1.9730474283901063 -3 1 0
2139 1 4.953090918740265 7.807892567724646 2.672092150225088 2 8 0
393 1 6.872593922101044 7.226648322962999 1.6757497220109938 4 1 0
2342 1 6.6572147170382765 7.848342143496629 2.7005768191288375 3 1 0
3032 1 5.985947263676378 7.935470927029763 1.5232422766675286 -1 0 0
2181 1 8.130551978991233 7.207477320266519 1.8208332540537633 8 -1 0
2892 1 7.400499710747772 8.379517118635409 2.1284818641329375 -2 5 0
804 1 9.146969524957075 7.187531818273987 1.834816487454302 -4 1 0
1315 1 8.678770589298198 8.044008388226995 2.4378779901119745 0 -4 0
21 1 9.744264438134245 7.367981317526328 2.7571004537870234 -7 7 0
887 1 9.56841768463539 8.177764823812458 1.7064057171517568 2 -1 0
2945 1 -9.250551132447777 9.593697630704852 2.389606365309262 4 2 0
1739 1 -9.752249081791684 9.000046491086414 1.5420933677669668 2 3 0
1902 1 -8.283265284397201 9.472715734109753 2.268580765330429 -4 -4 0
2361 1 -7.425917683750105 9.969979085759356 1.951551366615512 -2 -4 0
253 1 -6.085658633763972 9.403353074406755 2.6430768106070883 1 -1 0
1764 1 -6.686750371025218 9.32012848316702 1.6071035180191 -5 -4 0
639 1 -5.712967880600242 8.81851041990617 1.6840770451487659 -3 3 0
2254 1 -4.595658701626772 9.473625198518375 1.6766708391238487 -5 1 0
1359 1 -4.894462319256854 9.614366799871153 2.7687311229816594 -4 4 0
2449 1 -5.191811578395871 8.625774006135664 2.737082721675107 -1 -1 0
1303 1 -2.8868397814769957 8.7806843701018 1.5609047428808323 -2 3 0
1304 1 -3.429198498463346 9.31478685802748 2.6009061387932997 2 0 0
2764 1 -1.8941927905766054 9.882469404722414 2.285161334320155 -1 3 0
3267 1 -1.6435972434937678 8.929128928849902 1.8860717620392156 -6 -2 0
462 1 -0.8324471271411003 9.808811491695844 2.6418980596945323 -1 -2 0
1934 1 1.253735073903819 8.99028549509673 2.2959146932372896 -2 3 0
2177 1 0.4821996481812652 9.60143017159982 2.354671999401371 3 -7 0
1713 1 2.087736307275105 9.217181858940478 1.494667534036494 0 -1 0
2783 1 3.210165117338081 9.776809769879122 2.4415906040829514 -2 0 0
2865 1 2.9251573791720844 8.829426280249264 2.3172412558264748 0 0 0
1869 1 4.2061041024323735 9.195227760571806 1.6348963037883912 2 -6 0
3394 1 4.142601185636526 9.691134771457262 2.5859568902455012 -1 -3 0
3026 1 5.203675511824239 9.851550660444023 1.7078073766733541 2 -1 0
368 1 6.301792794070383 9.156413624300406 2.4539496167367134 -4 -4 0
2659 1 7.297240714911763 9.559587409129893 2.553756195704362 0 -4 0
576 1 8.261460188926863 9.07368769263832 2.409906099742207 0 4 0
340 1 9.637938549452501 9.770903448188548 1.956762786623043 0 -3 0
171 1 9.686211553168004 8.962097379031086 2.548401002513223 -2 5 0
1280 1 -9.52375544375458 -8.855217197503837 2.9111432587106045 -1 0 0
414 1 -9.914093459146223 -9.908499320733977 3.0356714324566685 1 -1 0
3620 1 -8.938932379702182 -9.636487985975862 3.707490610212369 0 3 0
3223 1 -7.955517733133133 -8.980548146227056 3.2975276532657007 -8 4 0
2931 1 -8.00299571780262 -9.556519357936855 4.255720538719747 1 0 0
3975 1 -6.688173029255303 -9.256759632115077 3.2236376644017852 -2 2 0
2320 1 -5.7325466830200265 -9.949251772262139 3.3786555606951194 -1 1 0
2300 1 -6.7498911535426735 -9.659709756852523 4.146029664152428 4 -4 0
3480 1 -4.716290763781578 -9.205424616235529 3.3325151400859943 -2 4 0
374 1 -5.612210415691347 -8.671406811466465 3.644164725803974 8 6 0
2003 1 -1.485144257457692 -9.919614864409827 3.3158485905878177 3 -2 0
2124 1 -0.1856564557746414 -9.441316856542946 3.5635312581770293 0 -1 0
3372 1 -0.8984929610156397 -8.645314576361761 3.228970718095121 -2 1 0
1314 1 -1.108397639086246 -9.278015639931017 4.196536610949991 0 2 0
2767 1 0.630821622017459 -8.6374724267033 3.31626280324698 5 4 0
825 1 0.7656290175395972 -9.65982232659218 3.9669693383009017 -2 4 0
618 1 2.5440990636542797 -9.517809150495552 3.1868302363915624 4 4 0
2720 1 1.6025606557975867 -8.636956099531847 3.7486803024426814 3 -2 0
3855 1 2.5390757942498623 -9.227445254737999 4.176326173847578 0 -1 0
1397 1 3.6262594566387034 -8.855973998202623 4.264000317769424 1 2 0
3582 1 3.549666255325495 -9.536788033881152 3.374818406979232 -11 -4 0
2934 1 4.485839103225726 -9.042186288821089 2.905161719127267 -1 -3 0
533 1 4.750856345502735 -9.391388269290509 3.8777551531443515 -1 -9 0
930 1 6.246482273398564 -9.755819678763899 3.1992675289610837 -3 -6 0
2678 1 6.331046314267262 -8.619603519017936 3.233914607055697 -3 -10 0
1084 1 8.305872574263647 -9.569071798189572 2.8967613230661025 1 2 0
378 1 7.203332091987324 -9.375427054824627 3.8602206160703063 2 -3 0
147 1 8.494961771621888 -9.215473027478861 3.805109072984391 1 2 0
2774 1 9.523060525803096 -9.194865904537064 3.7349479178008633 -1 1 0
2048 1 -9.854774308859415 -7.9912079472396425 3.4287903324659923 6 -7 0
2384 1 -8.82996568870987 -8.505124406176876 3.5781054998296873 0 1 0
1418 1 -7.685108656993716 -7.605725946092409 3.940273822729194 -3 1 0
2955 1 -6.585257079787995 -8.240983213686254 3.7640193391459666 11 -5 0
2415 1 -4.610147828003638 -8.175414325138311 3.5172952818600884 0 4 0
1408 1 -5.438594733465908 -7.604955131861717 3.6912725413729395 0 -1 0
3384 1 -3.8253701606992183 -8.502410099079441 2.904870961099975 2 0 0
581 1 -2.923380846786778 -8.075808312254024 3.269235752510092 1 2 0
1561 1 -3.816894510763596 -7.445196281483291 3.5142251075985906 -4 -1 0
3881 1 -1.6499724887554783 -7.558405404770611 3.286530521504484 7 1 0
3554 1 -1.836402487333278 -8.544417404982859 3.7172897503608624 1 4 0
3539 1 -1.9987565003515995 -7.599799571549447 4.264663987825717 5 1 0
3545 1 -0.8353131494873801 -7.397096415636112 4.268279503458767 -4 -2 0
1045 1 0.3832075595801595 -7.425863434082959 3.877579095976088 -1 -1 0
1971 1 1.288406373285639 -7.345161278415677 3.178143571985782 5 -3 0
1824 1 2.191935043249565 -7.628259119536974 3.6932498584526368 4 1 0
555 1 2.7233274792238067 -8.516683519652108 3.533175826313243 -5 -6 0
2536 1 3.8168063172050375 -8.195556025910316 3.4727146371705993 -2 6 0
3611 1 3.3933449381004204 -7.305573591890808 2.998641610190662 -1 2 0
14 1 2.966190951574468 -7.262579420499231 4.045998751205221 -5 3 0
3035 1 5.439507559124693 -8.15556424579735 3.1269955889859196 3 1 0
3887 1 4.528409219878552 -7.317046010562274 3.3419340913886737 -2 6 0
1352 1 4.972804702219502 -8.231412839633045 4.122185424830446 2 9 0
246 1 6.915101490559665 -7.426094805889325 3.4035663138477936 3 -2 0
2848 1 7.5496775875800965 -8.558797462857328 3.15037605523959 0 0 0
124 1 8.08661542572194 -7.5703870167776115 3.1873849865215713 1 0 0
2470 1 7.751037793836131 -7.996508349980098 4.033994999309229 4 0 0
2004 1 9.174133262997954 -8.258669625930363 3.8371696138391878 -2 0 0
1165 1 8.80274127351087 -7.1699708191442735 3.8098832475128988 1 -9 0
714 1 -9.173113118509374 -6.974325527035114 3.412748439383476 0 -4 0
590 1 -8.546974191256648 -5.926214891076094 3.676112370110788 0 -5 0