LAMMPS data file via write_data, version 22 Jul 2025, timestep = 2050000, units = lj

7000 atoms
1 atom types

-10 10 xlo xhi
-10 10 ylo yhi
0 60 zlo zhi

Masses

1 1

Pair Coeffs # lj/cut

1 1 1

Atoms # atomic

6906 1 -5.422595218824135 -7.65942355710329 1.3824994604709435 0 -5 0
2240 1 9.30178316063519 -6.386775479602216 1.3908771275938758 -1 -2 0
4789 1 -9.365691764226836 9.82860471806257 1.428055534495151 1 -2 0
3576 1 -8.906413929351881 -9.70169730347049 2.508848401013766 3 -4 0
1341 1 -9.291447096314387 -8.94444151140691 1.8363142035441642 1 -1 0
4694 1 -7.683753814288338 -9.161391137829794 2.3997700691192025 3 3 0
403 1 -8.432521578220607 -9.635696075824667 1.6041721868706857 -1 1 0
3871 1 -6.568941979945219 -9.353095523835753 1.5732976867870605 3 0 0
3685 1 -6.555022003029102 -9.187529032832709 2.824043827962214 0 3 0
2989 1 -5.572122903278266 -8.623900299799773 1.9912151223683736 1 4 0
5387 1 -4.399050294386577 -9.499201106949213 2.785375025783311 -1 -2 0
5073 1 -5.540272748463348 -9.792142046654153 2.239040462649625 2 2 0
1259 1 -2.877341157663357 -9.966186936521682 2.446571665437652 6 -1 0
5724 1 -3.683280490323723 -8.592670624194115 2.2398769026848955 1 3 0
5877 1 -1.633243321737836 -9.424404325477328 2.5742292142249568 -2 -4 0
5841 1 -2.432444445493946 -9.144170951445751 1.7782445541470313 3 -2 0
3265 1 -0.5530623357035822 -9.173931103286325 2.7404172732549967 0 -2 0
1302 1 -0.6449637456801295 -9.305045632700038 1.560411342250959 -1 -1 0
2309 1 0.4615921233126821 -9.114923784724004 1.7031239656550812 6 -2 0
759 1 0.050767513506070804 -9.984422457521452 2.284181315528596 1 -2 0
1255 1 1.1014303488531232 -9.874225209986923 2.507004555419174 1 2 0
4934 1 1.5687963588342981 -9.833618260987736 1.5767904599445346 -1 2 0
5565 1 2.1774175339132924 -9.599907342618703 2.535453964318081 5 -1 0
1154 1 2.9869119262502983 -9.277218507428238 1.8054962446747804 -2 0 0
5245 1 4.189609851448866 -8.974559577672357 2.578016713611546 0 0 0
858 1 3.279347154411678 -9.9582281161917 2.534859492371107 -1 2 0
6933 1 5.242108430966218 -9.301350345293324 2.3779010035326684 -1 1 0
5354 1 6.264219695475762 -9.049624037619445 1.687571781790468 3 3 0
2468 1 6.800649876054724 -8.790995113527167 2.680984772669111 1 -5 0
2584 1 7.472717312205853 -9.196403823253117 1.565117985372355 -3 3 0
1742 1 7.81713416862882 -9.49547660711805 2.838623732994988 -1 2 0
126 1 8.90927927312877 -8.870449462663418 1.51551099818267 -4 0 0
3808 1 9.9718128143703 -9.50421467046799 2.401578364454816 5 1 0
5743 1 8.758989942201255 -8.66339162193219 2.638014784937868 -2 1 0
2785 1 8.70981527094263 -9.649727495855853 2.313388921291282 4 3 0
6436 1 -9.486490306431122 -8.197840945246488 2.475811475576538 -1 7 0
911 1 -8.582462791194002 -8.099637274772746 1.854118368385616 0 -1 0
3230 1 -8.921780261687427 -7.294212078936593 2.541770949564431 -2 3 0
1178 1 -9.615685002414997 -7.4590753655025415 1.7259067478372876 0 2 0
3537 1 -7.474458247440259 -8.53400850425431 1.5523667412072883 2 4 0
3 1 -8.46005223892231 -8.560897875178911 2.7531417022833278 -1 0 0
34 1 -7.2852547346958625 -7.239482061690496 2.2388625546501806 -1 3 0
4590 1 -7.294946314698871 -8.29203401121329 2.696747887892423 1 2 0
848 1 -6.6339481388553825 -8.008914142162235 1.8989675668635224 0 -1 0
5138 1 -5.9727795844281735 -8.016151351915408 2.853185039902209 4 3 0
6884 1 -4.847327618004886 -7.714282544226019 2.2943992086784126 4 1 0
5340 1 -2.1249058066342483 -7.348522749421086 2.3892035903741915 -1 3 0
152 1 -0.4730133894769144 -7.661068563482644 2.1609263649778536 -1 -5 0
6778 1 0.7104924699475256 -7.450335258510407 1.9375026641050366 3 -3 0
2242 1 1.3797106124538117 -7.788814160814583 2.7209650589367786 -2 -1 0
841 1 0.3559912170690219 -8.35965195050785 2.679193615395917 -2 -1 0
6836 1 1.5901666394146419 -8.327071947854755 1.6392312255510728 1 -3 0
4110 1 2.1876739553475737 -8.496189301068199 2.601039540686267 0 1 0
2798 1 2.227663908866608 -7.5940530260501 1.9004974179146832 2 -1 0
6800 1 3.7586489224776667 -8.110820134984898 2.297627532824195 -1 3 0
6914 1 3.20731320410151 -7.328615171336294 1.7456355396349919 1 -3 0
5050 1 4.747414303930706 -7.448502870586309 2.7967584178395763 0 2 0
1851 1 4.729597991702038 -8.401802869192132 1.9172631619304055 0 1 0
6105 1 4.31010311603076 -7.358850339972767 1.8255498685124865 4 4 0
5209 1 5.5390703450417345 -7.489779812409558 2.0057884299077045 2 5 0
2475 1 6.717488771692109 -8.08068848248835 1.806881307815415 -3 0 0
5710 1 5.972119969489357 -8.2951371954163 2.4927112796323074 0 1 0
3479 1 7.250809915327438 -7.235167639195873 2.536892204788597 3 2 0
1447 1 7.753166095946273 -8.308607105448962 2.0496900743519983 9 7 0
3720 1 8.350080021476527 -7.523161565558902 2.2364861193601002 -1 1 0
5654 1 9.3888590882051 -7.819768240007933 1.930356519872968 -1 -1 0
5791 1 -8.927553732614253 -6.331183067145686 2.1199437059741397 4 0 0
4221 1 -7.897352588482856 -6.2869972503177385 2.5014280484938545 -3 3 0
321 1 -7.138296782954423 -6.527454460598807 1.453505711633805 -3 1 0
5087 1 -6.848583734499455 -6.016389828512664 2.402155732864176 3 2 0
4620 1 -5.690968916199804 -6.573337020641825 2.146801904786459 -2 1 0
6829 1 -4.645699620355466 -6.492261908469669 1.9702472872319545 1 -3 0
5165 1 -3.8211307938589263 -7.131925890320809 2.132530531055429 2 1 0
2904 1 -3.3671731520209573 -6.409239929543145 1.6078389918767477 3 5 0
4847 1 -2.1757930782749395 -6.277981742690596 1.901660719872605 0 -1 0
5051 1 -1.2068571628236118 -6.688774148264289 2.0337378172383764 0 -1 0
4524 1 -0.09500041876112897 -6.584288872486921 1.9199560135269989 2 1 0
5355 1 1.2434899799648917 -6.487384789018092 1.601448591532745 0 2 0
3745 1 1.2586427971385796 -6.133204451273872 2.507116654135278 0 -3 0
4141 1 2.6823606627778247 -6.737510335452453 2.7329327392018303 0 -1 0
2438 1 2.205786982123587 -5.7478517281355535 2.192751634472465 0 1 0
5102 1 2.9672891610317156 -6.325709281719326 1.7585259874293573 2 3 0
409 1 4.019235626815073 -6.064637533666653 2.039873115647044 -1 0 0
6488 1 5.465195457887465 -6.11200674355168 2.2821444820699686 2 3 0
4500 1 4.936677823823263 -6.627934964530295 1.4887706819331 0 0 0
3166 1 6.347298248491002 -6.809873109812523 2.169031358859506 -1 1 0
5230 1 7.382500948964465 -6.711748064434898 1.6713250814206455 2 0 0
5675 1 9.777874640985727 -6.7556223599493785 2.608905963457803 2 2 0
916 1 8.584763309943972 -6.556200591042879 2.737799626016908 0 0 0
2677 1 -9.101010384249715 -5.332919166281051 1.9424059634183182 4 -4 0
3603 1 -8.758548869807012 -4.350469655185231 1.8877336689775623 1 3 0
2808 1 -7.663046598836274 -5.207705548218357 1.8828549111848494 1 -1 0
5242 1 -5.952539927616666 -4.579389300253217 2.2846015659321086 -1 -4 0
5613 1 -6.9490411658379525 -4.30762880587609 2.1763778381077956 6 -5 0
4677 1 -4.884084887179408 -4.802752628739958 2.0566271680167874 6 -3 0
3600 1 -5.461443659462589 -5.640900678658874 1.830968994803262 2 1 0
1095 1 -4.905913734794652 -5.529612526577714 2.727130248866594 1 -2 0
5585 1 -3.966932918358556 -5.709453734208925 2.12019931286348 1 3 0
5612 1 -3.666807984845155 -4.290518088295868 1.904512481640894 2 2 0
6283 1 -2.917964677515146 -5.31783704811808 1.9810830017373688 -1 0 0
70 1 -2.046815231877244 -5.2226527237646945 2.6865129819209104 0 0 0
6349 1 -0.12605572844531593 -5.456634717608739 1.8988616877720281 5 -1 0
5234 1 -1.3259514064645679 -5.183615219705904 1.817621128371312 -2 -2 0
1349 1 1.2780309845651583 -5.180593198090967 1.5958481783738991 2 -1 0
6404 1 0.5113697216802866 -4.652625347730053 2.1634230304072313 2 -1 0
5130 1 1.511652083340789 -5.120085888751859 2.7076501563687363 1 1 0
5796 1 2.2178747278657513 -4.729595296796957 1.8608867075967224 -3 -5 0
347 1 3.285129776949107 -5.139222659041123 1.7804709170507238 0 0 0
2243 1 3.0661521352992533 -5.685358973175556 2.741233890718497 -3 -3 0
4630 1 4.116641885777989 -5.050530482455478 2.2959352277946232 -5 6 0
618 1 5.064038642108882 -5.327662964844987 1.5699373762860866 0 2 0
6776 1 4.808292236182891 -4.315147373512944 1.9931021466540535 -3 4 0
808 1 6.5040402543636535 -5.649655568411281 1.995283666264525 0 1 0
3773 1 5.858262393059064 -4.606155819292552 1.9719200243496406 0 -4 0
3320 1 6.8401134312577785 -4.605952709871221 1.826015707757291 2 -4 0
763 1 5.723226744021728 -5.10745147072846 2.8400930215643205 -4 0 0
1860 1 7.527589403848707 -5.574579143333144 1.979734607357315 -1 1 0
688 1 9.736395398422806 -5.395957767931137 1.8951425370342434 -3 2 0
3990 1 9.30426724435658 -4.748048881950951 2.7595081045302132 -1 -2 0
3314 1 -9.845134735324136 -4.187383120113895 2.0184896387289686 4 0 0
3020 1 -9.11984044888573 -3.3218544295578254 1.970141268197421 1 -1 0
3862 1 -7.184335020426779 -3.349896956445175 1.8112686911925744 0 -3 0
4363 1 -8.119903249925317 -3.5034860234673597 2.4385915740053785 -1 1 0
1958 1 -5.975632060346609 -3.2227654007784317 1.7415084568778136 -3 1 0
4766 1 -5.935040574725732 -2.885759181164848 2.7034697321433163 -2 -1 0
2454 1 -5.2248808126455035 -3.8205648503372616 2.5222561649931743 -1 2 0
1115 1 -2.9063101718097006 -3.7537588908413935 2.5377597093102398 -2 0 0
3999 1 -4.223982278158587 -3.2633283396496795 1.7001662027086477 -4 0 0
5827 1 -4.061351040832297 -3.539240373824487 2.810161309556229 2 1 0
1884 1 -1.7254325678980773 -3.417305735596199 1.7316563692912084 -1 1 0
5603 1 -1.9435392146992827 -3.509348277647126 2.6987380873365963 5 -2 0
3455 1 -0.8975124496937469 -4.097399373727086 2.0302971931568052 0 2 0
4103 1 -0.5845325252196026 -2.8809954641334263 2.277389697534397 2 5 0
3410 1 1.3239290943127322 -4.175571652891364 1.661598986561894 0 3 0
4535 1 0.5361251791423344 -3.517773151103296 2.2330241674241305 -2 -1 0
4756 1 2.0877075700014496 -3.863575044438004 2.531513763384614 0 3 0
6549 1 2.7595369530244547 -3.012032935483832 2.605476388594644 5 1 0
2575 1 3.053032765671811 -3.5072313128615433 1.7706197741755163 -1 -3 0
2731 1 3.780829366936962 -3.0468020791560657 2.5008574899193885 0 1 0
2684 1 4.248617860074278 -3.554298173549399 1.7269725311922868 -1 -1 0
3204 1 3.575741601792989 -4.152127829507978 2.5902672873153976 0 1 0
1090 1 5.6643184872755175 -3.401113868502396 1.78397871356929 2 4 0
4015 1 4.815276172439032 -2.8961051767404427 2.252302790607874 -1 -1 0
1275 1 6.382450448019621 -4.252060158655093 2.790527189304117 -3 7 0
2316 1 6.6546668858877425 -3.482122852040867 2.023596619276502 -4 1 0
2519 1 7.511066882361377 -4.219522614036893 2.4061910621295435 -4 2 0
3968 1 8.15284876241633 -3.2663636934116274 2.1701499867865115 -3 1 0
526 1 8.596832891919762 -4.200264600983537 2.2688859799162273 -5 2 0
2325 1 9.792553989074962 -3.2878654938200147 1.785818688960706 -1 3 0
5414 1 9.116212216524772 -2.8900874353896753 2.6183855695387854 2 -1 0
3271 1 -8.975069126732565 -1.8032779562129724 2.5327977916735707 0 -1 0
3890 1 -8.405191902101008 -2.483983897725765 1.5504291848437477 0 2 0
2464 1 -7.351073283922221 -2.717556757459864 2.703800968737821 -3 -2 0
2807 1 -7.875289466247506 -1.8292837265421145 2.417776304428626 -2 0 0
3981 1 -6.752474742120405 -2.0876290605093564 2.0413511350714826 1 -1 0
2424 1 -5.654288692931071 -2.1284360739034898 1.9610541262767518 -1 -3 0
3966 1 -4.336323605811083 -2.2763048259079244 2.362288881253036 0 2 0
1062 1 -3.640623538761844 -1.4599711078680335 1.765668663321458 3 3 0
2204 1 -3.2127008883015087 -2.094664081346679 2.5591655354017915 -3 -2 0
902 1 -2.271758802608565 -2.510252306171826 1.8229885305952074 1 3 0
470 1 -1.5261653415112149 -2.4411345253672287 2.811538113428474 7 -1 0
669 1 -2.3474180032799414 -1.5198896617336792 2.6629369062168853 0 0 0
744 1 -0.06318780072709419 -1.9943859844460612 1.74170093223946 2 -2 0
2553 1 -1.3562542667697493 -1.483114928664851 1.9635355436379691 0 1 0
3748 1 1.2708073353901304 -2.8019764720662703 1.6747857938300537 1 -1 0
5086 1 0.5281146708016108 -2.504539841810872 2.793037534832415 0 0 0
2589 1 0.8578076287061959 -1.6029608900231422 2.594716188980601 -1 -3 0
3963 1 2.4624356329175026 -1.9201127102751463 1.9851881718989488 4 1 0
5049 1 3.447129229946999 -1.599451759502921 2.791923742306364 -4 1 0
2982 1 3.9515643458353127 -2.1144972300281295 2.0642573558751875 4 1 0
3132 1 5.613331355365417 -1.8925990774862647 2.5896608005746957 0 0 0
4839 1 6.052086072279439 -2.2565115713850337 1.6855344805869898 -2 0 0
4974 1 7.138238397258031 -2.5760740570773057 2.250220561519939 -1 0 0
5432 1 6.958090442317418 -1.6688746249022053 1.5215505962469937 1 -2 0
5063 1 8.154131145490904 -2.121160859467382 1.74302943989439 0 -2 0
1857 1 8.049062516795091 -2.0469284712506335 2.782218378685083 -2 -1 0
509 1 9.488741461148836 -2.244377455946565 1.7339467883931436 1 1 0
3712 1 -9.703965752372758 -1.2545040329745312 1.5953449873394072 2 5 0
1697 1 -9.364261058599073 -0.5961802580254035 2.3231322074084817 3 3 0
1094 1 -7.878950068833483 -0.32537378757985824 2.3305910286964244 1 -2 0
619 1 -7.142325719061844 -0.9786798216815223 1.8482799272900627 0 -4 0
5928 1 -6.019777952400976 -1.199029022978254 2.2247709960807422 -2 -3 0
5084 1 -6.082119154931195 -0.09020248426961576 2.2628370619474008 1 0 0
4039 1 -4.754380866704713 -1.3197890099216805 2.0054104217577122 0 1 0
4765 1 -2.874488250976595 -0.49291062115756734 1.5556129723437178 -1 -3 0
3967 1 -3.161029343059754 -0.8518310164718529 2.6223586592382215 -3 -1 0
5438 1 -4.093808985958813 -0.5293936598861351 2.614345833598628 2 2 0
5 1 -2.167634706016753 -0.37057648082969247 2.377337313386668 2 2 0
1598 1 -0.809791732653443 -0.2993155390110427 2.1707605894944724 -3 -1 0
1217 1 0.266470212172776 -0.9586196494493973 1.9326437598674036 -1 0 0
703 1 1.3615111704388108 -0.004594340374570829 2.8322488282710245 3 -3 0
4305 1 1.5950013620079084 -1.082030594288886 2.0217152521624233 -1 -2 0
4679 1 2.6245752848811628 -0.7727684272551726 2.5308690313219486 -3 2 0
2608 1 2.06838457213805 -0.02564514393911979 1.7985111179922948 1 -9 0
2627 1 3.9924476692373063 -0.5716635586568343 1.9611918270570268 -2 -2 0
4892 1 5.180779505894222 -1.2778516969128202 1.8911606631279796 2 1 0
708 1 4.844081823745424 -0.06401135467155003 2.440662179262101 2 -2 0
104 1 6.227323363366666 -0.7721833386933578 1.5948988506928363 1 0 0
3947 1 6.395122966728054 -1.2309388755426116 2.444815901094847 5 -1 0
3296 1 7.375029970118124 -1.3206532037569423 2.5190499113014626 -2 -2 0
6562 1 7.181837419376266 -0.3554926183728713 2.1333243704363998 -2 -1 0
3513 1 8.094965266300811 -0.46393415368290225 2.6591096171804707 -5 -1 0
4495 1 7.9004960750848445 -0.9460733950729887 1.598648631637088 0 5 0
6761 1 9.903269930428621 -1.3928500189289532 2.6241295839279344 1 -1 0
1665 1 8.883901047206818 -1.2941275075475873 2.1503885299326684 0 1 0
4962 1 8.81660005931579 -0.33444018954410965 1.7011533840102806 0 -1 0
6348 1 9.516658341448805 -0.002451605411776972 2.4573568170141393 -4 5 0
6831 1 -7.88189347511891 1.345741528404961 2.490083468736941 0 -1 0
4610 1 -7.050345520256777 0.5075986870502615 1.8276489287256494 4 2 0
2319 1 -6.007662585308802 0.9272274375286167 1.8405044800862096 0 3 0
1252 1 -6.867167688775772 0.9556484443010667 2.7908456550602514 -1 1 0
3833 1 -4.9849325414932055 0.08948776092656463 2.579059946505605 -2 1 0
1096 1 -5.167418912136186 1.1410853874753575 2.3470072543733314 0 4 0
3300 1 -3.1787892857470594 0.2554926395465366 2.759908120660008 8 -1 0
1673 1 -4.13258050321194 0.8454065366701148 2.712491618131312 2 2 0
4866 1 -4.195035776803053 0.07564520054261697 1.8510717483551158 0 -3 0
602 1 -2.44786677367868 0.6566227991388134 2.0625943139785776 -1 2 0
4318 1 -0.7854853345655631 1.134780359907454 1.8868709682417868 -1 1 0
496 1 -1.4209743414655758 0.2888748817106303 2.787852674947671 6 -4 0
5262 1 0.16823295368557775 0.02117229874216497 2.576805110227505 4 -1 0
4347 1 1.2968075298480841 1.4112583223666202 2.6880686445183595 -2 0 0
3379 1 0.8963264582391286 0.543941492819746 2.095713558621265 -3 1 0
3697 1 2.081884185795791 1.1390200391123622 1.6832841968277483 4 1 0
2908 1 3.052211582711288 0.5751353994836361 1.9718430752636504 -2 -3 0
2 1 5.371874582336532 0.8128978793883517 1.848271999171714 1 -1 0
4048 1 6.044710101000724 0.043856766531741836 2.6797472875824746 -1 1 0
687 1 6.120071122830672 1.0301811642165766 2.643209809953569 0 4 0
5792 1 6.420448941497278 0.3613789586914407 1.6342330191315657 0 0 0
3106 1 7.347488877314344 0.9361672014493814 1.647157741477352 -3 0 0
2230 1 8.353093413712559 1.1619149206533148 1.9429902392431517 -3 -3 0
6099 1 9.159563253398876 0.7241167369316218 1.5737567603603269 2 1 0
4146 1 9.159772514401798 1.3833795741110408 2.723297430585378 -2 2 0
4476 1 -9.872871592784712 1.6485187614220111 1.6607091521896602 -1 -2 0
3597 1 -8.72201557026834 2.719296124735104 2.3386398981821803 0 -2 0
3129 1 -7.819173789902934 2.4183202320689365 1.4721222418583777 0 -1 0
5866 1 -7.566685300752225 2.389671465165305 2.749905907768856 2 -1 0
3122 1 -6.803895661223726 2.014093151916347 1.773442994801608 0 1 0
830 1 -5.755511794923162 2.154428480453539 2.755123081698571 0 1 0
1954 1 -5.423147973858541 2.024098073076022 1.467718479740962 3 -3 0
4022 1 -4.436906126828727 1.9367973108059025 2.0985172603786784 4 0 0
3388 1 -3.7314986276692843 2.490004183147962 2.791773371150543 -8 -3 0
2061 1 -2.223943568901685 1.9338101022013128 2.257225921379267 2 0 0
1132 1 -1.1435091927134509 2.168053673616781 2.4959712591592162 2 -1 0
248 1 -0.45830219097967984 2.1300420350885667 1.63153199745703 0 2 0
2590 1 0.6689408634980991 1.7023304537935737 1.8768492492904338 2 -1 0
5256 1 0.03520533220689284 2.0440261558106374 2.712433589258089 4 -5 0
108 1 1.10524115589421 2.7342268514466554 2.476161476175525 1 -1 0
2306 1 1.6309607163084625 2.0524781271451773 1.8680967709669092 0 0 0
5930 1 2.420107428005404 1.9179437906986487 2.702794629447692 -2 -4 0
4219 1 3.257457396454616 1.5635618451180546 1.5100909282105879 5 0 0
4921 1 3.2586123907213875 2.4554406154148385 2.268891339676385 2 3 0
798 1 4.475831935515187 1.5124711866125053 1.9799494341826556 -3 0 0
944 1 5.351217342422881 1.8063085540797772 2.6711145904953795 2 0 0
5913 1 5.905966541302222 1.822866656481225 1.7307076684407816 2 -3 0
5246 1 6.952149857142507 1.8785223675266962 1.9360891054596392 -4 -6 0
3398 1 7.951937585645821 2.0471612019528855 2.429292248765335 0 -2 0
2098 1 9.273831698078865 2.4053028377970924 2.3081545348107997 1 2 0
3794 1 -9.637202743586233 3.2613888172952925 2.31354361589094 2 4 0
2504 1 -8.624198319623256 3.970018228430586 2.6285193464505787 3 -4 0
4067 1 -7.7980068348407094 3.2654472283153497 2.003255031850471 3 7 0
3526 1 -6.286893443110757 3.238349152041216 2.3002171282690638 0 8 0
3060 1 -5.215289037323152 3.0203401115888964 2.1022789079790174 -3 1 0
2957 1 -5.6592516248233204 4.01579047338806 1.8158010769720119 -2 -3 0
404 1 -4.205909359119607 2.920824637076536 1.8749786736058662 -3 0 0
5257 1 -3.1237428246011407 3.6163082347521485 2.4009391245375906 1 1 0
5973 1 -1.643444548290737 3.8130060887323434 2.3887416899010643 0 -2 0
2472 1 -2.467641522576623 4.165864583658504 1.6886000445869107 -2 -1 0
6293 1 -0.8264739985860721 3.1213731736190655 2.0519406800301496 3 -1 0
4826 1 -0.1591527057297799 4.248168318751332 2.4553663282961637 1 0 0
6367 1 0.2550347551740553 2.8832065452359212 1.8144460674501146 -5 -4 0
3556 1 1.092556591226393 3.7531784697215964 2.1919822358173673 -2 3 0
4230 1 1.5825358509666256 2.995018194379295 1.6627119136512494 -4 0 0
2600 1 2.2284736735922115 3.320107726186218 2.5027936726436466 2 -1 0
920 1 2.8204347865311656 2.992030176142222 1.4534697201539826 -3 2 0
68 1 1.8910946136885431 4.261776318983449 1.884690616013448 1 -1 0
1031 1 3.8094385879492214 3.261185572209837 1.6873419873772475 -1 4 0
4672 1 2.9321283581452855 3.9735878349265095 1.7955411368711631 -1 -3 0
5283 1 5.205749592625823 2.953975461749071 1.6404033710701111 -3 1 0
2716 1 4.443298112200428 2.9672740725496616 2.5753942073008167 -1 2 0
5992 1 4.599786144885743 4.030953886387312 2.097439376033492 3 -3 0
5301 1 5.659227929092828 3.0191249519628425 2.5929701767734703 0 0 0
6806 1 6.56205427453426 3.156984465501064 1.8607199923735478 -1 -1 0
3502 1 5.744054612105095 3.8436107970945295 1.7194849085177908 -3 0 0
919 1 6.367045162753466 3.8274124140645718 2.6980124089295026 -2 1 0
434 1 7.559594433972229 3.5639432865010163 1.7373354772451486 0 0 0
5298 1 8.184846625849843 3.4033436046320005 2.7752439582675086 -4 -1 0
1882 1 8.928307040866684 3.5608415398216215 1.822554784959217 8 3 0
2791 1 8.877234041089755 4.254154876589208 2.6811883557527905 -5 -3 0
3647 1 9.261163815989825 3.303136354566704 2.853532759988889 -1 -1 0
5364 1 -9.438130269890626 5.341869349756369 1.8833219226981905 1 2 0
2806 1 -9.78006629957023 4.3494342843465095 2.5836480733547504 2 3 0
2264 1 -7.810414309477343 4.324884333785827 2.04921847242083 -2 -2 0
238 1 -8.077725760481389 5.568445006746263 1.9209091657393367 3 -3 0
4406 1 -7.1524810002286 5.645436963883687 2.597463596545954 1 -3 0
6627 1 -5.720846175154672 5.092296225881784 2.3068531581039635 1 0 0
6435 1 -6.783987527904585 5.218290423132596 1.5835131188828218 -3 -3 0
2613 1 -4.746812727792367 5.427416715666329 1.9324520930412639 1 2 0
468 1 -4.10314135404588 4.538091466073758 1.8135935201349642 -1 -2 0
4836 1 -3.0637432968725333 4.762391718216103 2.389350102038837 1 2 0
3130 1 -3.769333473394677 5.636352908085849 1.7760077851592682 -8 -1 0
6805 1 -3.9820526922242134 5.178775992304996 2.749267594292462 4 -2 0
5121 1 -1.848121030660961 5.470446353719988 1.8241140551017665 -1 4 0
5470 1 -1.1694212985001537 4.854236138320065 2.699944199046735 -3 -1 0
3637 1 0.753475695850286 4.881586077700187 1.9483124539269376 -5 1 0
421 1 1.5239735491369073 5.311778617078625 2.682832757652969 -2 -5 0
4585 1 2.3975524613908465 4.3576461008134775 2.8409120510136274 3 1 0
2004 1 3.555302775446653 4.356685348778293 2.6169813557991564 3 1 0
4247 1 3.8836149009118786 4.975265532323678 1.7488038540213848 1 5 0
4686 1 5.562051854764663 4.829056410516365 2.2177290755391983 4 -4 0
6584 1 4.462328712034826 5.018214870958794 2.785164185879335 1 -4 0
6850 1 6.84192892872813 4.3870453178199424 1.8511353284371141 1 2 0
5759 1 6.528764232334437 4.959192748517517 2.7213268922884115 -5 -3 0
1216 1 7.400334971189168 5.322039212419586 2.0333315570819823 -2 4 0
4989 1 8.379679891528811 4.766960788026106 1.7994298469656564 -1 -3 0
1545 1 7.762229133794607 4.302978245729126 2.354419596816647 -3 3 0
1063 1 -8.915693964672469 6.141838729540714 2.2784702052675123 3 1 0
3788 1 -7.38907656500931 6.289190569076719 1.5963340873839873 4 7 0
334 1 -6.231434430557631 6.166432300355788 2.794839548561938 -4 1 0
2364 1 -4.55493793517104 7.129272384762676 1.8548611994203943 0 -1 0
6228 1 -4.078175653667501 6.293965422381756 2.497659937460074 -3 1 0
1465 1 -3.500829917903811 6.725985804399205 1.688335347739305 2 -4 0
2959 1 -2.8601614982782513 5.98185166360766 2.400424997740789 -3 1 0
4519 1 -2.439501730860775 6.380670265350639 1.4783498314643007 -2 -2 0
4490 1 -1.8041165906000773 6.6030861736817865 2.2861869163721593 -2 -4 0
3154 1 -0.15891448994589988 5.971662838228982 1.4775120740741468 -3 2 0
2091 1 -0.9577195931084209 5.837272082262704 2.363584702009251 4 3 0
6688 1 -0.015712709425936538 6.4354578276944645 2.7811856567378603 9 -3 0
6535 1 0.17614274915850286 7.104040386213561 1.7850482014934916 -4 -1 0
5442 1 1.1814975306325852 5.8243527161709885 1.771483042854821 -4 -4 0
547 1 1.0036362476602223 6.941782613325044 2.5084335813048937 1 2 0
2134 1 1.777550660707209 6.778251941499731 1.6086782595499611 -3 0 0
2945 1 2.2561728538171795 7.046530774450019 2.474376749983616 1 -1 0
1878 1 2.921130476748918 5.982589246946669 2.3394919855718457 -4 1 0
3649 1 3.5878444196750823 6.847827586310471 1.7590178864956072 3 2 0
1422 1 4.2735179412640045 6.3221186135505505 2.5867967240968213 1 1 0
3249 1 4.5591114681108085 7.00416209127026 1.9305412164629625 2 1 0
4177 1 4.895717780633521 5.834362193333512 1.966948460664662 -1 1 0
2033 1 6.630863130862873 6.0480857161189014 2.623749404017128 1 -1 0
3973 1 6.486857354637687 6.4326289810441875 1.4351938829971767 -2 0 0
2374 1 8.256753748742067 5.998541012053406 1.560950805759353 1 -3 0
4767 1 7.455994421327103 6.978676691781872 2.312990671221578 0 2 0
4628 1 7.611265202797138 5.978622568253206 2.828369297201468 -3 0 0
5861 1 8.471790387015597 6.6894447392876115 2.751032045201901 0 -4 0
5579 1 9.060998452209876 6.709088473367834 1.742122285864768 -2 -1 0
5707 1 -8.61562361013351 7.382104524168781 1.9913771420963184 1 0 0
3310 1 -9.380462271548284 7.954792982289985 2.4738805182600516 -1 -3 0
5373 1 -8.95952869977209 8.42147577131012 1.667977754064215 0 -2 0
2691 1 -7.645495986155933 8.068883729731407 2.038369657631219 1 -6 0
4935 1 -6.247848381365019 7.488046659524609 2.4074539479470913 0 2 0
2222 1 -6.571006539106771 8.427947562769893 1.9419700295361602 -1 -2 0
1099 1 -5.0518621129954555 7.947445346531225 2.2516995589399365 -2 1 0
2756 1 -3.2137814927426405 8.018692712276692 1.6802664349803613 1 -1 0
6129 1 -3.9457196063673123 7.616788461804723 2.648546179245194 -1 -3 0
4408 1 -1.518431356025042 7.387941632560149 1.5753042869390002 -1 -2 0
6247 1 -2.768239606720196 7.1971681612437335 2.3773074065804303 3 2 0
1940 1 -1.8628231915520435 7.716590018809512 2.6278858133648053 4 -3 0
5455 1 -1.3846478005696272 8.50729048774755 1.720268419828061 1 -1 0
2496 1 -0.893123401831741 7.383795944133573 2.5316327125495985 -4 -2 0
2070 1 -0.9056451318610957 8.485304615553087 2.670778544116664 -1 -3 0
4114 1 0.7551100978259664 7.903155438968807 2.026780420061946 0 -4 0
2972 1 1.8104152715963149 7.944402261726968 1.713237005013714 -1 -5 0
1618 1 2.546391763842531 8.459808127419873 2.5064152738075807 -2 2 0
936 1 3.4590050614663164 7.5249329992729 2.5022499581319924 2 2 0
1538 1 4.5404319877512975 7.733082138301796 2.70416778472276 -4 -2 0
3563 1 5.587208037065683 8.052209067343057 2.4585004618183754 1 -2 0
809 1 6.303557957624691 7.185693737202396 2.8044815290662246 -1 5 0
654 1 6.723616183230333 7.8547239284823185 1.9880967708696367 -2 2 0
6862 1 8.371572187943556 7.6752994900453215 1.7942825433046041 1 6 0
682 1 9.609212930735442 7.369212152566534 2.4077488541345113 0 -2 0
1700 1 -8.865664825026533 9.341559451742306 2.1761288232218794 1 0 0
6870 1 -7.690996593736833 9.41042446025291 1.8495283310949366 0 1 0
6953 1 -8.03072552739383 9.773339521157785 2.7739624918801358 -1 -1 0
6934 1 -6.576741815292571 9.470755652530388 1.6794430357569088 0 -3 0
5948 1 -6.228314185124079 9.28701623543664 2.80797416705564 -4 -4 0
832 1 -5.308274560222885 9.144086298541042 2.252424918167398 0 1 0
1051 1 -4.170384465325143 9.679423371938924 1.895201203789916 -3 2 0
3960 1 -3.2503531924589946 9.139374522671256 1.9726290966440492 -2 2 0
151 1 -4.248395606171975 8.597495795737876 2.3414443409641907 3 -1 0
6833 1 -2.384344580853495 8.68374374271125 2.771972893657741 5 -1 0
2026 1 -2.255875862286421 9.084516524328203 1.766761671699008 2 0 0
1640 1 -0.06998367936928952 8.987598670791069 2.034246383246689 2 3 0
6343 1 -1.2206785701139482 9.72913235541948 1.8897095430172666 3 -3 0
2366 1 1.5663285860128742 9.117245993249744 2.74194628304093 -2 -1 0
4445 1 2.427265593669996 9.314563658835977 1.714675629741142 -2 -1 0
6371 1 3.670458854414885 9.365632944792013 1.8700999191237768 -3 -2 0
6031 1 5.710927751069457 9.812549498478164 1.9628084032893311 -1 1 0
2842 1 4.811864914436743 8.831367422760323 2.7552929073678256 -1 0 0
4938 1 4.641006470947067 9.070612762056276 1.6196249621982823 0 2 0
2674 1 4.427689261425938 9.806146488734681 2.834344979674716 -1 3 0
4763 1 6.705618766282485 9.934402287303607 1.5485001068590643 0 -1 0
5247 1 6.322726975450966 8.85158619009771 2.3528682029153187 3 3 0
2037 1 7.834585423983093 9.751798592384977 1.7548706695390988 -1 2 0
5949 1 7.591937969233599 8.727602623442028 2.3441934821710904 4 2 0
3344 1 8.549085513516381 9.27245537348626 2.609731354763026 3 -1 0
5331 1 9.716232576284606 8.93132089424923 1.9462158221708428 0 -2 0
174 1 8.616821500393018 8.622562070101761 1.8052443631018198 -1 1 0
1309 1 -9.935210212912272 -9.169957869049426 3.464361845954126 -9 -3 0
3084 1 -8.157539128893879 -8.607348038669686 3.766827939394325 -1 -4 0
437 1 -7.637527413126302 -9.414555998013311 3.402381797613906 -2 -2 0
2471 1 -5.823874438828401 -8.778457957450584 3.9941808298494426 5 2 0
6399 1 -5.411088942479391 -8.942652585984375 3.0354062154987624 -4 1 0
1522 1 -4.848226659867044 -9.380485414057414 3.801404577142463 -4 -5 0
38 1 -3.546757395752335 -9.940499874465315 3.791010868328698 -5 0 0
5267 1 -3.3895017678113413 -9.125648222995801 3.0959298847575596 1 1 0
2016 1 -2.3079248846556073 -9.422438702294551 3.3411881562750554 1 1 0
6322 1 -1.5126452433842448 -8.666532633645843 3.253019106846654 4 0 0
2357 1 -1.1065752342176403 -9.725147931114932 3.5590681621040874 2 1 0
6424 1 -0.24898398526487767 -8.608822368818723 3.652046799459741 -12 -1 0
6296 1 0.9737564058542559 -8.972235533642866 3.240224464676768 3 0 0
6470 1 0.11774795569689155 -9.677441502056936 3.7211204198648353 -1 -1 0
4818 1 1.36962087948065 -9.884835967033728 3.53509504872725 -6 -1 0
88 1 2.2197411574356534 -9.061616047605698 3.452936124949855 0 5 0
4621 1 3.1954688504996898 -8.96074722042687 2.941916720939972 -3 -2 0
2413 1 3.3522980068516515 -8.666358298913963 3.9862947943037086 1 2 0
462 1 4.25047677981846 -9.16304048168019 3.6759614016240385 1 0 0
589 1 3.1833633669559163 -9.774708271515731 3.6407084062764254 1 2 0
6854 1 5.209056891018564 -9.609104036429336 3.3820314143755796 2 1 0
2076 1 5.752442511244428 -8.757080203552722 3.8277967455543935 0 -2 0
1952 1 6.245979951130555 -9.62020963426217 2.8693743188565883 0 1 0
4626 1 7.117069855286556 -9.429460216114457 3.656307679948243 -1 -1 0
5309 1 6.220659797876359 -9.868372941375558 3.8110813015518725 -4 5 0
17 1 8.372424021877396 -9.116251285464836 3.702760477717823 -2 -1 0
3628 1 9.320189276971185 -9.10554959112781 4.201076220465391 -3 -1 0
2261 1 8.911662404726416 -9.90866473212197 3.2644824942108035 -3 0 0
4704 1 -9.300994475687192 -8.30068416408477 3.4729084842171614 3 3 0
5750 1 -9.681367309211057 -7.342957336234807 3.6273837575817507 2 -1 0