LAMMPS data file via write_data, version 22 Jul 2025, timestep = 2050000, units = lj

4000 atoms
1 atom types

-10 10 xlo xhi
-10 10 ylo yhi
0 60 zlo zhi

Masses

1 1

Pair Coeffs # lj/cut

1 1 1

Atoms # atomic

1362 1 -9.381879772726604 -5.555674131295597 1.3324133196395416 1 -4 0
1406 1 1.9197183955528998 -3.467840967557099 1.3791464254751122 4 2 0
1465 1 -0.023112421214682547 8.49012472367801 1.4082649899237831 1 2 0
700 1 3.0927206036445773 7.533837670461192 1.4220640755538612 0 6 0
912 1 -4.332571638684089 8.864126896513756 1.402174951491321 5 4 0
1765 1 -9.627580496297126 -9.451482282094569 1.7271023321626435 0 4 0
2431 1 -9.945050913716319 -8.907725572737798 2.6031196509253527 0 0 0
1405 1 -8.923634086634934 -8.900997897432346 2.7943822518686905 1 -6 0
728 1 -7.149808586351663 -9.18361637085641 1.4580253145106106 -4 0 0
1013 1 -7.972787865232942 -8.825192591631481 2.182922531816862 5 -2 0
179 1 -5.871979984932036 -9.639258563267955 1.7588260352234768 -10 -2 0
1901 1 -5.997224335408186 -8.632916924447938 2.271080780120803 1 14 0
1393 1 -4.846103689143249 -9.476551807861796 2.3850125996413327 4 1 0
2477 1 -3.8680163028436785 -9.630187551629783 1.8170140294592927 -2 -3 0
3066 1 -3.614225161141645 -9.272740395894768 2.67087282879649 1 -2 0
1987 1 -1.6057761019416426 -9.746787346651619 2.3346070064908253 -2 -7 0
3373 1 -2.7604184458349814 -9.603298290488722 1.8162012463015162 1 2 0
411 1 -0.48154473521305335 -9.327709999388892 1.6747241481478774 0 -5 0
2651 1 -1.1968198493736493 -8.712912853235133 2.7753977091853654 -5 2 0
3718 1 0.40464945946686737 -8.885436824424852 2.1077286261662342 2 -2 0
3122 1 1.2827450708639268 -9.433151962733872 1.954210170829771 1 -8 0
2805 1 2.229682807553033 -9.72240993851409 2.2030626803275206 -8 -2 0
2541 1 3.312253897542573 -8.764277946798794 2.077010776676469 1 1 0
3124 1 4.689959167289465 -9.122828747553422 2.656813245707347 -3 -2 0
2156 1 5.833254098546966 -9.865558745857074 1.6131883167877543 -2 -6 0
126 1 6.03542453407724 -8.651377994823758 2.0030812927509047 -7 1 0
3087 1 6.948803365675768 -9.562391815922078 2.354654726465121 -3 0 0
1518 1 5.842184354275647 -9.5260513951804 2.582899489535287 -5 -2 0
550 1 7.995286291492565 -9.642561305383934 2.1497044457596792 -2 -1 0
3532 1 9.098012547319932 -9.356777094387867 1.9879366895026058 -2 0 0
3208 1 -9.599225906161033 -7.39246579600476 2.232022586985497 10 6 0
1475 1 -8.404084976086496 -7.583174173532774 2.524869131194886 1 2 0
2373 1 -7.5780083172056045 -7.57600046341952 1.825041308199283 2 4 0
3903 1 -6.96633321657908 -8.17396983009415 2.769911080138412 -3 -2 0
2856 1 -5.7790032328069465 -7.965115588682369 1.5570851786502278 -1 2 0
3401 1 -4.861551055381662 -8.519140174171719 1.8090385924953902 -1 1 0
3391 1 -4.493464660153898 -7.36655542552909 2.819689922564142 0 -4 0
2317 1 -3.8434692465415257 -8.334336654885167 2.342500911871205 -8 11 0
2617 1 -4.068052153609957 -7.462378010199307 1.8122518957675868 1 3 0
2904 1 -2.804164660719397 -8.52809431644689 2.6438429982640117 -4 3 0
2706 1 -0.7466501595724208 -7.265354279513081 1.7582171050037796 2 -1 0
1852 1 -0.4536928658351983 -8.221572311939305 1.7812296244485313 2 3 0
2457 1 -0.20700355314344562 -8.338973991009576 2.759258579025883 2 1 0
1839 1 0.41993589267798426 -7.6463902883239125 1.6804850687999129 -3 -5 0
2168 1 1.3737740537195078 -8.18509140454794 1.7952122754468964 1 4 0
2201 1 3.1832016539345225 -7.732038677141989 1.5553580786003505 1 0 0
3875 1 3.6337941438505825 -7.7552032201118335 2.6630963214239225 7 -2 0
1084 1 4.453473081782798 -8.497417388889192 1.9458245743836793 1 2 0
1928 1 5.342700541772231 -7.549315878702334 2.117437281511173 -1 -8 0
1876 1 6.514739000797195 -7.732987323053723 1.9150520700138074 0 -2 0
1953 1 7.4105079379961145 -8.374817474649182 2.0358118014509565 -2 3 0
900 1 8.30918894375044 -7.69043997688162 2.562439293786943 4 2 0
3738 1 8.384509027376682 -8.552630261961221 1.535560610923241 -2 -1 0
607 1 7.508397183847671 -7.259971250571457 1.7529145538852922 2 -15 0
3385 1 7.2125410603207 -7.571548280707899 2.790195074936451 -5 -4 0
215 1 8.976869522911471 -7.217589783115421 1.632083926403536 2 4 0
3104 1 9.435985152025092 -8.11025594713789 2.0399836165707543 -2 6 0
238 1 -8.897547188473935 -6.206765455991269 2.1219887241481796 3 3 0
311 1 -7.756567453646473 -6.440170802908083 2.220691528961662 -4 0 0
3929 1 -6.687624362080722 -6.900632689227617 2.0262830701342684 -2 4 0
1477 1 -6.855667853146333 -5.812153756629155 2.5561511706990325 1 -1 0
1744 1 -5.586647117945986 -6.986321115487423 2.2829879657221066 -3 3 0
493 1 -5.690790871005783 -6.063111164737945 1.628609669138246 -3 -5 0
2645 1 -4.657880864753026 -6.3074534111803935 1.9720696828009254 1 0 0
2302 1 -3.0920485785400906 -5.991225684117159 1.726358299805047 -8 4 0
1867 1 -2.557638249789536 -7.087870842115999 1.851898096366927 4 8 0
3293 1 -2.155621733199288 -6.101758800631284 2.347129448203559 -2 1 0
906 1 -0.4406622618814114 -5.744097964377189 2.3405309335780844 6 3 0
1460 1 -0.5871787279000338 -6.840824515664224 2.8035400483836876 2 1 0
1205 1 1.3836898529191035 -7.067003369021866 1.5967936613350164 -4 -7 0
3295 1 0.7216868019973001 -6.002998406997085 1.769645192654942 3 8 0
3857 1 0.48221981687108095 -7.050167479605992 2.6454884483868026 4 -2 0
1431 1 1.8933871674612643 -5.743981123183078 1.9840545370615275 -1 3 0
1745 1 2.3877169060999615 -6.349156802942458 2.6880756190982464 6 -4 0
764 1 1.5936650710835498 -7.099944397897267 2.7552677071488154 0 1 0
2609 1 3.0580719487098964 -7.036309774457145 2.332402549705715 -1 -3 0
2441 1 4.582787601049808 -6.429140318733049 1.6432715858593212 6 -1 0
3215 1 5.423895238321432 -5.984978433087162 2.055704577806014 -5 -3 0
3509 1 5.874109306837975 -6.722292460830379 1.4780833362679164 -11 0 0
2955 1 6.5131031370491455 -6.339502990959364 2.5056380890705205 10 -7 0
1015 1 8.47751056629326 -6.321589899867055 1.648755384922882 -3 -2 0
1998 1 7.690160372534951 -6.720151077942562 2.76410116370019 -4 2 0
3367 1 9.515584783820653 -6.370288343936314 1.9570711041126037 5 1 0
2399 1 8.94987742295719 -6.7324217383630565 2.8029425007566178 5 7 0
2703 1 -9.293838050431836 -4.62350254519256 1.91377830639157 -1 -5 0
996 1 -9.865366182939924 -5.554468805794339 2.369716173660206 0 -3 0
3853 1 -7.614764952162832 -5.513385114928411 1.6937279617370953 -3 -5 0
2790 1 -7.9369337341545565 -4.450447014672795 1.4742400754490166 3 4 0
1454 1 -8.294967179458185 -5.426339648857984 2.8412351691946798 0 -4 0
2417 1 -7.269562831828929 -4.830589806759766 2.507136355935591 6 2 0
2482 1 -6.562013376719158 -5.246454925731695 1.4922888232273301 6 -3 0
985 1 -4.6907907889925475 -5.3645362733695805 2.114953023364266 -3 1 0
3752 1 -5.579224559191237 -4.564724038175104 1.8737764088205915 0 1 0
3783 1 -5.647381310140552 -5.620976286940311 2.5107300750395978 -2 -1 0
823 1 -5.05011450712854 -4.4333720275681054 2.715574895133321 -13 -2 0
3116 1 -3.9290105184104975 -4.933686792402119 1.7822989584098035 1 3 0
3744 1 -2.4764722747317576 -4.841066269013543 2.2211770101167088 -6 8 0
1719 1 -1.4776713283768979 -5.367295604306759 2.5648548906885695 5 0 0
3906 1 -0.07366998162932205 -4.349567600284404 2.6212328706687242 1 2 0
1307 1 -1.1872015141717212 -4.533370730483072 1.8680603678365764 2 3 0
1882 1 0.8591546343374168 -5.00891811429255 2.5960923598131798 2 6 0
190 1 1.2939710459182732 -4.676302611497147 1.5592889887378618 -6 4 0
280 1 1.944858749462997 -5.173516277939314 2.8530658543382517 -2 -2 0
219 1 2.9418105202872016 -4.909435746237911 1.7528457900257668 3 13 0
1974 1 3.628685301272297 -4.577413929591384 2.524381279675419 3 -4 0
1378 1 4.246767647153426 -5.181221909250023 1.6764562577535027 6 1 0
1082 1 4.484678398829675 -5.51317470211199 2.7502085255736097 3 7 0
3164 1 5.393377844111963 -4.891969441423849 1.65570155901725 -2 1 0
476 1 5.656167190507858 -5.192884734691461 2.7881149620114876 -7 -10 0
3529 1 6.383150784096257 -5.165602139676988 2.042398721160282 0 4 0
16 1 6.361861308178558 -4.437216784288286 2.7251788816557005 -1 1 0
332 1 7.495477746744113 -4.598639090481319 2.025458589037556 -7 -4 0
3216 1 7.433545850685166 -5.692282492604125 2.287070288910529 5 -1 0
826 1 9.756064807154186 -4.859556316046483 1.6461744860516543 0 1 0
3619 1 8.874594271848833 -4.31894674243545 1.842285769008436 -2 3 0
3994 1 9.015947508371742 -5.24580035559976 2.2699426647041396 -5 1 0
1665 1 -9.185266528510361 -3.88214445179337 2.8088536918025424 8 8 0
749 1 -8.974590505696227 -3.623494392722565 1.6333666181736852 -4 7 0
3076 1 -9.938086962589379 -3.1430145465544017 2.341105910507519 -2 0 0
294 1 -8.234829469468961 -3.8912159165788434 2.3666672675719886 1 -2 0
3430 1 -7.057828412670418 -3.488799185833758 2.2397909447043762 -2 1 0
3819 1 -6.190955184796817 -3.7604723511225586 1.7113619866674132 -5 5 0
976 1 -4.669970138915619 -3.9856140125545596 1.5609356051614867 0 -1 0
2891 1 -4.926800193377511 -3.36332006823996 2.8129976068911575 0 -2 0
312 1 -4.050789867839954 -4.0859678959543055 2.4354599208591887 -1 -2 0
3613 1 -3.682899778419158 -3.5274701509219737 1.688399043729154 -2 -5 0
3952 1 -2.097684723674806 -3.8336625147718277 1.4457111010618606 -4 -1 0
3998 1 -2.736045182279207 -3.2710389604774037 2.2890011287662646 -6 -3 0
2341 1 0.47207498125870717 -3.744635375670256 1.908360888929536 1 -1 0
1834 1 1.837089758111337 -4.045990892592932 2.404457411074564 -2 0 0
3820 1 2.873801355444195 -3.814332456015921 1.871018774331697 0 -12 0
762 1 4.262072832979026 -3.968227744083134 1.6959833763951604 -2 -8 0
181 1 3.575312506981946 -3.4335855453108106 2.713760572881919 -4 -2 0
619 1 5.379412485754932 -3.4114950151482852 1.7201837013370673 6 -4 0
2424 1 6.602953022653239 -3.989353644488281 1.7949369827756225 6 1 0
583 1 8.038657090951336 -3.8197152758464896 2.7484876970589425 -5 -6 0
982 1 7.230534992983733 -3.0640767953382215 2.045900563304254 3 -6 0
1486 1 9.786211267053798 -4.200634066903788 2.5940462258839503 -2 2 0
3105 1 9.920840099218548 -3.7962049015500097 1.6124942597422371 3 3 0
3052 1 9.041880883736498 -3.4254238275204547 2.68052286061547 1 2 0
11 1 8.79025478164667 -3.3235374574596457 1.5458893648198435 -2 1 0
3907 1 -9.453690197203539 -2.5135616864413257 1.6510602030075452 2 -2 0
1521 1 -8.852692680367781 -2.776903809213626 2.756822912850912 -1 4 0
3410 1 -9.236031046879898 -1.6775919995570536 2.343693599268327 4 0 0
2973 1 -8.3779721929174 -2.7596929748039893 1.5162502421039048 -6 0 0
896 1 -8.303057478974472 -1.8114134084202773 2.749140464521675 2 3 0
1424 1 -7.374652482621572 -1.429416737850663 2.230063028800832 3 -5 0
2405 1 -7.396626864994909 -2.3144361828266513 1.5657663481520405 -2 -8 0
385 1 -6.21966776611163 -2.606081643246659 1.682321217330985 -1 -3 0
925 1 -5.7466247284046945 -2.620757822875446 2.598834817401041 0 3 0
572 1 -5.6034635815070315 -1.5119176843887685 2.1163920390618625 2 -1 0
3992 1 -5.071975964611734 -2.735726990593917 1.6457639244051632 0 3 0
1403 1 -3.4827973174013467 -2.199543067451079 2.1288708964929604 1 9 0
1732 1 -2.0644722198590193 -2.6252863819960606 1.795913803244151 3 -3 0
2789 1 -2.3625314566351534 -2.225557598279243 2.72548464799919 -1 4 0
3600 1 -0.7380160494169221 -2.855581231366368 1.8135107153777528 5 2 0
217 1 -1.2614700812703037 -2.384038974960741 2.850021210261183 2 -5 0
231 1 -0.10288876042750315 -1.856085904605895 2.6838632170446726 -10 -13 0
2896 1 0.09076409715568252 -2.091125901331281 1.6911958484563026 1 -10 0
620 1 2.8123837605472297 -2.601465825926529 2.0237723400755785 -1 5 0
3709 1 1.794857059806433 -2.1116021999944694 1.4596687491629692 -2 -3 0
2115 1 2.142529133093336 -2.07219337483606 2.5171497960445275 1 -5 0
1851 1 3.4246399306895077 -1.6939660623687118 1.9088221428763046 3 9 0
1240 1 4.664250228028476 -2.661063809470474 1.7363931289954877 -2 -1 0
2930 1 5.627695476677895 -1.8960418066760163 2.2636252501737064 5 3 0
1600 1 4.608597343034572 -2.2043379132437737 2.8313505856517316 1 2 0
3948 1 6.087912824362367 -2.77374791212004 1.558195717185424 -2 3 0
201 1 7.378270379486516 -1.5623105479315267 2.6017368540382746 -1 -2 0
1905 1 7.896166211976593 -2.5810548074287167 2.6915906498746547 0 -4 0
964 1 -9.577862893712034 -0.3267845870785914 2.1622606276482457 3 2 0
554 1 -7.5798257360796955 -0.3151903067858982 2.4216040517938904 0 2 0
2065 1 -6.733581209564303 -0.3799857045072378 1.7113485975776557 -3 -1 0
2601 1 -5.044248724112805 -0.46810176535839754 2.7872472804893693 -5 7 0
420 1 -5.521315184274269 -0.21023611968038183 1.8104466332470779 7 -3 0
2182 1 -4.346091600603857 -0.2155849917823203 1.868961792160509 0 -2 0
1395 1 -2.7392491993655153 -0.2235064332030579 2.1321287485442793 -9 0 0
1844 1 -0.22046095224712386 -0.09339276836017761 1.7318119348483259 -5 5 0
2446 1 -0.6799352753910718 -1.108551927583203 2.3696327737203355 -3 7 0
1215 1 0.9717763721354841 -1.2822394949167344 2.14438053027341 -2 -3 0
3322 1 1.4192131854518815 -0.15443495701376322 2.195535678150333 -3 -6 0
3524 1 0.4085025398231819 -0.596614047881161 2.7728914813868535 1 0 0
1986 1 2.361682586016001 -1.2387578229928473 1.574851070021176 -3 2 0
808 1 2.0756734294713417 -0.9194982951224202 2.683663407870651 2 -3 0
2388 1 4.048425823275777 -0.021381519516854096 2.3369815610128697 3 2 0
3393 1 3.225633866980412 -0.5377359397564444 1.9133805364117304 3 4 0
539 1 4.515499508630796 -1.2868676929934457 1.9846059115886339 3 14 0
1264 1 5.1582425807843535 -0.5211498064025396 2.0487954137338473 3 5 0
3096 1 6.204980956274276 -0.9618930407345904 1.854717565089558 0 7 0
2599 1 7.189177319952846 -0.4563085891524675 2.4770073477602845 -4 -1 0
741 1 8.9243632324154 -0.1412388553368547 2.371030107865391 4 0 0
2517 1 -7.768005526003115 0.4480546779587465 1.6011447368237346 1 -3 0
43 1 -8.245808402110159 1.1796027832968021 2.2764429248334688 -3 2 0
2543 1 -7.121695162474516 0.8609506908575557 2.499353653024066 -5 1 0
1409 1 -6.565169394652414 0.6058334833596426 1.6096971417517834 1 -2 0
1819 1 -4.653461707237707 0.8156874767602739 1.940905279326938 0 1 0
1108 1 -2.120261579123646 0.8749159785423976 2.1459606471697743 3 4 0
199 1 -0.7584594229255277 1.021500421330476 2.373230190574983 -2 -2 0
1752 1 0.4816038238395359 0.5090078084779207 2.603589173957213 4 0 0
157 1 1.423034883475905 1.0741922415426437 2.620444250166696 -2 -1 0
580 1 0.15607330421405746 1.1555696724656415 1.707177191988427 -1 0 0
1120 1 2.654885018088926 0.006787423058644018 2.572550465865897 -3 -3 0
1508 1 2.180551171036795 0.9465646975201992 1.6508961880884165 -4 3 0
2453 1 3.564401347274366 0.9293405314918732 2.3646137780881324 3 2 0
453 1 5.078073914008233 0.6469455862360788 1.899485069645197 -1 -3 0
3829 1 6.19873075990105 1.1557434171566108 2.112217951999705 2 -2 0
3366 1 6.070236850191179 0.13610733774847786 2.2401364745953787 2 -13 0
1327 1 7.07779242071185 0.9371110792731757 2.6847418894848256 -6 3 0
227 1 8.314782249817235 0.4209412912984226 1.6322026764109008 1 -1 0
124 1 8.630079723072361 0.9127827044573229 2.543799958957401 2 0 0
2122 1 9.968169843179476 0.4982020253908255 2.76363217527274 0 -5 0
1859 1 -9.610880417589506 2.5594877725816523 2.1430220407222342 3 3 0
3834 1 -8.499900413824664 2.4544084677793707 1.9042594371988486 -1 2 0
1116 1 -7.23155128546712 1.9810346476975584 2.2326594414178653 9 8 0
2654 1 -6.256589051252899 2.640510589781913 1.4641717573252897 5 -5 0
574 1 -6.513976353131563 2.80604254055357 2.6734983660831957 -2 2 0
1954 1 -6.1261302415059005 1.835049084718658 2.472440904393632 -2 1 0
1944 1 -5.227076711589145 2.0779513228826434 1.922439351618419 0 -1 0
904 1 -4.764275895182553 1.4289882335974082 2.787070038110083 -3 -4 0
3571 1 -4.608928546924682 2.8039253836871167 2.5612669867991738 9 0 0
3900 1 -3.2712429306938904 1.4788372513432744 2.46602860737869 -6 -13 0
1836 1 -3.1022909048192284 2.452276737383486 2.7724363829718044 0 -5 0
289 1 -2.1637016685904658 1.9423524664969416 2.1033833716734387 5 3 0
1810 1 -0.03428249132625283 2.6337088134894326 1.845896056670131 -1 2 0
1717 1 -1.3360573590119482 2.775330305769166 2.7957030270432113 -1 5 0
1456 1 1.174553404412694 2.1178033123903317 1.8325678665631315 -2 -4 0
2525 1 0.5802367176704947 1.6478358925729344 2.5425962745892434 -2 -1 0
258 1 1.9878308688836608 2.377267620344117 2.621647379087474 -9 -1 0
3501 1 2.691362455809429 1.6343728854696582 2.169997276925029 -4 0 0
3768 1 3.385518377543866 2.3076925684094025 1.8977612234973515 -5 3 0
2454 1 4.446821357886192 1.6501988477044227 2.3838719444877654 -12 -11 0
2039 1 4.377050755651737 2.7357204661375434 1.850153600953316 13 6 0
1146 1 5.569604826042829 1.910750058958373 1.6161584463062364 -4 4 0
1495 1 7.126667337164467 1.563034558785455 1.6848029189461202 3 -3 0
282 1 6.45730204299858 2.4519906940524256 1.9952846288035104 2 2 0
1573 1 8.388563946151779 1.9588600488169818 2.301584972969952 -1 2 0
1686 1 8.0978668133387 2.8468824412132956 1.8994861624195523 2 -1 0
3976 1 9.578343643218005 1.4391219463411953 2.1690766898341667 -7 -5 0
2783 1 9.422191547240612 2.6142409777853857 2.798691425830284 -1 2 0
3143 1 -8.575681030042254 3.982785904357387 2.264366936870078 3 -3 0
2975 1 -7.308814263570618 2.9125441456737855 1.6314336054784737 0 -2 0
2368 1 -7.801328588491489 3.2054963629358966 2.425786219474094 1 -4 0
2798 1 -6.147075331896359 3.774091245354818 1.4322137878018983 5 4 0
2480 1 -6.671308851764965 3.817563337067599 2.7224885301142425 -4 -1 0
3314 1 -5.628923499656532 3.6090410411507694 2.3960352444710944 7 8 0
3282 1 -5.112515510142407 3.1969507518437688 1.5852940530987922 0 3 0
2211 1 -4.582370259680557 3.914990587023292 2.8144467511262614 13 2 0
2519 1 -2.8323793451367507 3.575045258084782 2.383715599696071 3 -3 0
1570 1 -1.9435756663801365 3.052143823682128 1.695668388993743 5 0 0
3934 1 -2.0049636335380194 4.190109698537571 1.8327563097461623 1 1 0
2418 1 -2.2828471489916757 4.283251876243142 2.834246023469703 12 -8 0
581 1 -1.2885713422616725 3.8704598947164666 2.628373774235718 2 0 0
3846 1 -0.8435656223791944 3.2851150020610187 1.707377257168566 -2 -11 0
991 1 0.05761161651524388 3.663875640976508 2.6074567265259483 -2 2 0
3148 1 0.4623124930527222 3.7644817209738206 1.558059280304431 0 3 0
1697 1 0.9598076384765456 3.142667448269365 2.4580061331369034 0 1 0
1861 1 1.7625522279303691 3.4259874777337314 1.714336626284979 -3 -5 0
3625 1 1.8870082322589643 3.9582516974507476 2.6736447368199805 -1 8 0
513 1 2.7472771265575484 3.511303013024942 2.4162391556907283 2 2 0
729 1 5.148649774456774 2.9837325070994143 2.638733815942286 2 -1 0
2463 1 4.312737151461366 3.622659624656039 2.6754377892151786 -4 1 0
2331 1 7.030962020358868 3.4820686109728247 2.322455846268464 7 -2 0
2055 1 9.179525290969694 2.9483260532653017 1.6966224574980708 1 -2 0
3877 1 9.900749449954052 3.802921456101743 2.3408010919702504 4 8 0
657 1 8.710191696434748 3.807137870827818 2.2776394576160546 1 8 0
2737 1 -9.79213844534627 4.714769384891254 2.6611344404581154 2 -1 0
3713 1 -9.978843659851881 5.292196912615184 1.67269593659214 -4 1 0
3915 1 -7.585311253243336 4.869245119416631 1.6016414343257488 2 1 0
610 1 -6.58382954788519 4.922673805190873 2.1959916267273716 0 -12 0
1332 1 -6.053471818469232 5.632268278014558 2.7726901072638053 -1 0 0
2089 1 -5.2437895704484045 4.682997527960055 1.9771171583733114 -3 0 0
2442 1 -3.130879559612084 4.603212476461671 1.9154347641309157 4 3 0
1088 1 -4.2318399687082096 5.525209469200322 1.9427268750495161 3 5 0
821 1 -3.10622495616732 5.513806375207117 2.429601435867351 0 0 0
3928 1 -1.5318387929725372 5.70666342924097 2.5925650822176114 10 1 0
2677 1 -0.8660030699852783 5.327560158051679 1.5116990184743857 -1 -4 0
831 1 -0.259350169107189 4.521991929194944 1.8146241956144884 -3 7 0
3601 1 -0.6852044500996026 4.957413779880215 2.6389101486552833 -6 -1 0
649 1 1.3456819576434356 4.617710567547361 1.9935070436944817 2 -2 0
2293 1 0.4529955231416811 4.9578905806175175 2.455613496289408 -1 -3 0
1349 1 2.553638512615759 4.577669795533234 1.6089972960521557 2 -4 0
193 1 3.4005384151745868 4.52546783226752 2.6963149585200252 -5 1 0
2456 1 5.449527559882991 4.311830360248868 2.0391824122112987 -2 -2 0
1400 1 4.484537796670838 4.795486399972445 2.5271352588750986 -2 6 0
1642 1 6.692210810542349 4.505537098778312 2.707755483466719 -4 5 0
2219 1 5.778086450417142 5.216792072186835 2.761705739010007 -1 2 0
2901 1 7.750541658262244 4.300409880302482 2.0192535040891384 3 2 0
3090 1 7.526618174235386 5.345039179399546 1.6364362608491565 1 0 0
1857 1 8.017396010039288 5.231649267577811 2.81569499485927 -3 4 0
2197 1 8.647708771970976 5.420254081316972 1.9049727904617935 -1 2 0
3210 1 9.028506827833109 4.435683200866257 1.469770477969953 0 3 0
684 1 -9.012843186163296 5.849451452845512 1.6714984949335465 0 1 0
757 1 -9.41011549418956 6.578329144625061 2.49389371465189 -3 -11 0
3398 1 -8.363263473519906 6.73665853942355 2.3508522591963072 -2 -5 0
2321 1 -7.9685214953265 5.791312392659863 1.9273875323777883 0 -7 0
1421 1 -7.42015759239021 6.817459991765127 1.6225909430282341 -3 -1 0
2108 1 -5.975122115895031 5.716608909836124 1.6260494562207275 -16 6 0
3935 1 -6.924749979366709 6.04686342119855 2.3456086282031015 -4 -4 0
523 1 -5.992984755880211 6.928795098963191 1.9625102850641456 1 -9 0
288 1 -4.953501499416097 6.779197887447278 2.5199212734156724 4 -9 0
3162 1 -4.265652868575394 7.116903693796905 1.6100253284124224 5 -4 0
2001 1 -3.042793652796743 6.777195591635735 1.6341529506416 3 -4 0
464 1 -3.7134026387790278 6.99830814184158 2.723729133492476 -3 -2 0
3642 1 -1.8906355447434369 6.29162778822378 1.7538120070693424 2 2 0
1660 1 -2.4119251545411444 6.868825079916999 2.576341893643394 -1 0 0
1540 1 -0.10118532425255579 5.970548170353838 2.134804455974115 1 3 0
3193 1 -0.44009569326086234 6.990280088598193 1.622136111050646 3 3 0
3038 1 0.8610605313094852 6.284412381570867 2.5163672407249944 -3 1 0
1269 1 1.0776512161166565 6.689471057374229 1.6707009500443668 -1 8 0
2647 1 1.6517741833578414 5.841083912062469 1.963922497627562 1 5 0
3931 1 2.520111345837822 6.78107061331205 1.9309504675943816 1 -1 0
1210 1 3.0309273518549675 5.777910805390159 2.5918562611208196 2 3 0
3812 1 4.199056557911939 5.901427634659418 2.3405391398944464 -1 -6 0
3194 1 3.605172740688058 6.735158420480967 1.7752152463297444 -2 2 0
2490 1 4.821806699125764 6.707509606437524 1.517551500306637 -13 -3 0
3326 1 4.730383766615798 7.109472858727153 2.803747491760622 -3 -1 0
919 1 5.833529719820827 6.485181173184306 2.0167145036265715 -2 2 0
321 1 7.141885273387505 6.375372378463659 1.6388788245730903 -6 -2 0
1143 1 9.638147933965659 5.976145917263596 2.4703067505097827 0 7 0
3235 1 -9.687803534448543 8.038754302255962 1.887183513625094 -1 -1 0
2352 1 -8.988979537183445 7.721614788224453 2.8222753262011033 -6 -4 0
549 1 -7.8843045571705765 8.12919314696238 2.8520360741695088 -1 3 0
1597 1 -6.882316092413521 8.278178808304693 1.9404552862369924 3 2 0
2687 1 -6.139167095519379 8.433805085599207 2.810653580190241 -1 -3 0
3649 1 -5.6944194622373265 8.54622909003516 1.8428558675548363 1 -8 0
3624 1 -4.525988575128782 7.9278831173431685 2.3690107158162386 2 7 0
2561 1 -3.4899677013790695 8.399450466696912 2.1344447389415744 1 4 0
1311 1 -2.555528449414625 7.801707631746526 2.0255417329878243 2 1 0
2436 1 -1.5054965350634728 7.291474479919333 2.7518907585281114 1 5 0
2037 1 -1.9935233692442604 8.354941557945217 2.5697430661265885 2 6 0
3741 1 -0.23767265186957115 8.08289945340858 2.3280831496374748 5 -4 0
1595 1 -1.2316632753096848 7.963812714567726 1.5978767786877466 -3 -7 0
3482 1 2.069433889054709 8.372645555691767 1.8349482372139014 -2 2 0
3271 1 3.0272023903306735 7.369444580719422 2.5793353337670966 -4 -2 0
1336 1 3.57958968112227 8.523013077351495 1.6884156656495104 -1 -1 0
679 1 5.277519514566774 8.197330253065843 2.4652278103718603 5 1 0
356 1 4.286667292329066 7.577272728770165 1.6196808534091394 4 3 0
3150 1 5.727390014991099 7.297211898700917 2.6905688298911206 0 -1 0
1734 1 6.454496795058855 7.918865780293912 2.3886501842205345 1 1 0
3676 1 7.853413004011154 7.169814821710399 2.5347038676130147 4 1 0
1060 1 8.022482484852056 8.506007536269898 2.219940273869933 4 -2 0
751 1 9.293369056094338 8.5363665595541 1.8744371735084133 -2 3 0
347 1 -8.853801200177728 9.990609526821041 2.638802123004034 -2 -5 0
1374 1 -8.978844326030977 9.584033644359517 1.5729145879820614 -6 3 0
666 1 -9.385137298229873 8.870948555003196 2.617803116222193 -3 2 0
2100 1 -8.340022695564775 9.054542679580942 2.7377350394969526 8 1 0
3990 1 -6.4085408661575345 9.815628020155511 2.4475348522918083 -5 1 0
1700 1 -5.08899508508082 9.610953375871953 1.7633303334851003 4 -3 0
686 1 -3.7477958396545716 9.421897999476126 2.6046900309102257 3 -5 0
1637 1 -2.4235128494814324 9.331823822744616 2.057717414959518 4 -1 0
2303 1 -0.8161624856889574 8.752538996080698 2.7784758809277754 7 3 0
1218 1 0.6986220228933705 8.60515318761789 2.235027797014082 0 1 0
1065 1 1.3642182567613803 9.288524407420452 2.127061079409116 -1 -4 0
969 1 2.339813896440608 9.37125489621894 1.6757535896134024 7 2 0
3782 1 3.8665939430028824 9.686228800833074 1.5025077433924061 -5 -8 0
1653 1 3.9339588442289264 9.148896988059088 2.4382908599636712 -1 -2 0
2370 1 4.870445168628034 8.619856210769662 1.670764815103746 4 0 0
2767 1 4.9667954993308445 9.987737490020217 2.2135475964595384 3 2 0
2028 1 6.7796903683454985 9.045635030473624 1.8992230515811235 -2 4 0
1661 1 7.496364717993753 9.517536534775209 2.743253373381394 -3 -7 0
1241 1 7.813480150839324 9.516163559297096 1.4690233174899014 2 2 0
1340 1 9.910926715742399 9.457213416971054 2.0844295141827156 -2 9 0
2263 1 8.841450171005649 9.655159416191506 2.0921781247561264 0 -1 0
1659 1 -9.050047601088083 -9.993647737520892 3.7153063613464474 -1 -4 0
108 1 -9.90638073774519 -8.584526576415 3.689606121924029 -1 -7 0
1936 1 -8.635294280746612 -8.883332271119876 3.974065009699158 0 -4 0
676 1 -7.552261552845876 -8.905373152826089 4.024770101156568 -1 4 0
2146 1 -7.06620075014829 -9.575316792479688 3.021445777527563 2 4 0
2038 1 -5.854230940199298 -9.324220709513453 3.099159555278814 6 8 0
3912 1 -4.301665027155589 -9.462529980575018 3.303879005165097 -3 1 0
1621 1 -4.821486603123096 -9.050916916680752 4.062523824605208 -2 -4 0
3941 1 -2.6353914843683115 -9.556631921727082 3.0842025601674004 8 -12 0
3549 1 -0.5414562942587192 -9.777337927829674 2.964875227955445 -3 2 0
1494 1 -1.1371325278571869 -9.504928584645558 3.6987043654562792 -2 0 0
2690 1 -0.5645089668308404 -8.700792779978677 3.6225462996585645 -1 1 0
637 1 -0.14285334953254575 -9.536207266143744 4.167052683443315 -1 0 0
3055 1 0.9544450641153335 -8.87325927174777 4.250385011570365 -8 -3 0
3759 1 0.8852095537913233 -9.89399533385342 3.6411270386654198 -3 6 0
2876 1 1.4813086935620796 -9.015087112805476 2.9139605972240803 -4 0 0
1779 1 2.4792021861431444 -9.846180237834663 3.229317869303389 3 -1 0
3237 1 2.116106007733598 -8.979355615029323 3.7981319000204823 2 1 0
3670 1 3.018908804323825 -8.963918233210862 3.227224655866537 4 0 0
2438 1 4.0673876076719875 -9.861155103049638 3.155254474259795 3 5 0
2570 1 3.6970920418508864 -9.295630464015376 4.057496233241639 7 1 0
2365 1 5.020038383209792 -9.285799078593245 3.902924577319454 -3 -2 0
3035 1 7.075982533563911 -9.527559881374705 3.5026356233979605 2 0 0
2720 1 6.752699024951087 -8.707428834052337 3.0109844253298608 2 -2 0
99 1 6.051243077017095 -9.47417212916292 3.71614446378136 -2 2 0
2944 1 7.893396907400576 -8.713461411327053 2.8651346226345704 -1 1 0
799 1 8.333354519660727 -9.420779274379381 4.007800096183956 -6 -11 0
1025 1 8.952802230038017 -9.207611314774642 2.930180533930493 -2 8 0
1322 1 9.696106794296965 -9.999212813339456 3.011569661471325 -10 -3 0
176 1 9.322004700509147 -8.93924470134309 4.166513179428706 -2 5 0
3662 1 -9.047097442180984 -7.9533306916974436 3.621365308213072 -3 -2 0
714 1 -7.93321556313034 -8.07161498547792 3.3815237645004528 1 -2 0
3477 1 -7.096603824562353 -7.570219062512615 4.041681347817769 -1 2 0
3918 1 -6.021753993632429 -7.563937743881908 3.368344068304179 -8 -5 0
3955 1 -5.890182922297834 -8.467849153243268 3.9707741312316713 9 3 0
160 1 -5.022406239642481 -8.216881597324937 3.1808480678181072 -5 9 0
935 1 -4.751682304268188 -7.4705448187779595 4.008870930134946 -5 -1 0
461 1 -3.8010387539321853 -8.372919880956657 3.6567345067025645 -3 -1 0
3960 1 -3.5469875869705954 -7.195766794071574 3.3450757173538905 -2 -1 0
1152 1 -1.8439827484354567 -7.784195696639135 3.515636764521101 1 -3 0
1334 1 -2.613422526370284 -8.547595312927207 3.8148381760318073 6 0 0
3236 1 -0.7939904760854575 -7.763793709770766 3.88606523465109 -6 2 0
3280 1 0.13158056378805336 -7.227765624377704 3.8658073670173065 -1 8 0
3882 1 2.4232127725423713 -7.961977590966242 2.8986258964261005 -1 -5 0
345 1 2.452310281909366 -8.022726651985348 4.1148410267730515 -2 -4 0
2992 1 4.06153581817171 -8.299145284241977 3.5062903800090703 1 -4 0
3230 1 3.3310580371844276 -7.334745437146001 4.239257027551076 -2 -1 0
1100 1 5.084737568589123 -8.12756570356408 3.432037147913783 -1 8 0
3346 1 4.5916658878701115 -7.241132037382638 3.905169140452137 -3 2 0
3526 1 5.869599425835821 -7.658262943399785 4.039769791337737 0 -1 0
3637 1 6.061381265774118 -7.190338445404772 3.034136142830583 -3 -6 0
2526 1 8.161612911682615 -7.7471809211387015 3.7282410033198996 0 -1 0
887 1 7.295881751616667 -8.278835657627369 4.261469709525222 3 3 0
1488 1 9.916341810593813 -7.768472427347633 3.0739026252549686 -11 -4 0
2833 1 8.948058044502258 -8.267351336648378 3.292022385611362 2 -5 0
3574 1 9.181065278114566 -7.252913911537435 3.9414852450999835 3 2 0
2639 1 -8.969566292132223 -6.936278454217836 3.2810836719265106 3 -3 0
2804 1 -9.006417724061292 -6.262249774968186 4.134567989310636 1 -2 0
2164 1 -9.806909965330266 -6.294868109809299 3.0827828368058796 0 -4 0
1524 1 -7.259004409182143 -7.103847449641028 2.886334308761151 -5 -7 0
1220 1 -8.031514602946 -6.381668086909397 3.559054495654392 4 8 0
1911 1 -6.194033098192284 -6.568954939895235 3.1127640688178775 6 2 0
1902 1 -7.007672729383519 -6.405755097472355 4.026729689875578 2 -5 0
3895 1 -4.9746428204521465 -6.41020190102209 2.971626509627569 5 -1 0