LAMMPS data file via write_data, version 22 Jul 2025, timestep = 2050000, units = lj

7000 atoms
1 atom types

-10 10 xlo xhi
-10 10 ylo yhi
0 60 zlo zhi

Masses

1 1

Pair Coeffs # lj/cut

1 1 1

Atoms # atomic

2619 1 -8.728711051854145 -8.073992526663627 1.415554665284867 -3 2 0
4451 1 -0.6358562534253132 -7.499985359949268 1.4143784908389507 -2 -1 0
3969 1 3.4795894620770356 -7.802739929426325 1.4257666004236917 3 0 0
6163 1 -8.106372175763806 -6.828557492077381 1.4013155398702102 0 -2 0
44 1 2.1960044163281176 2.159128149708476 1.4142484068306551 3 1 0
5360 1 -9.370740171298927 -9.313350144944529 2.66930067199103 -2 6 0
1128 1 -8.974746113008022 -9.979386739133824 1.9057753754542186 1 3 0
175 1 -7.8100439988282755 -9.97454164921687 2.063298050405399 2 1 0
6412 1 -8.191988110657757 -8.99129045182752 1.6553912084428626 1 -2 0
5905 1 -8.074794258856114 -9.066312036623035 2.6775941886878893 -1 1 0
3598 1 -6.993248581471054 -8.673814768694214 2.54010728619903 0 0 0
126 1 -6.750604007082456 -9.890233367762532 1.9359566072010357 -3 1 0
5145 1 -6.076549183583259 -9.314460698665005 2.613988178598691 1 2 0
6629 1 -4.869442925731705 -8.991625274724134 2.545118143470646 1 1 0
3275 1 -5.635543061027474 -8.646658641079508 1.7254187697865249 1 0 0
4935 1 -4.234313574832502 -8.607373168271522 1.793290364079994 1 2 0
5858 1 -3.9763031230699113 -9.825587097777314 2.080605278465704 2 1 0
5124 1 -3.249354668682819 -9.182323316487006 1.8510894226744001 0 1 0
1100 1 -1.7793373562725978 -8.99337872850234 2.0049430374763215 0 1 0
3180 1 -2.3580278140073405 -9.96128272906755 2.0950565868640414 -6 -1 0
6046 1 -0.19171576739030624 -9.541218344267028 1.9476139184726187 1 -2 0
3980 1 -0.7740032306855484 -8.743756051716787 2.177526772859827 0 2 0
369 1 -1.270276731047786 -9.98133840861005 2.138166804047966 -1 -1 0
3861 1 0.9362683150714484 -9.172193663414875 2.0537857156813693 -1 -1 0
2206 1 0.08461273728603748 -8.878327893474564 2.7705460748508774 -2 -2 0
2664 1 2.2860614523822163 -9.604721178297195 1.770595878982892 1 3 0
3054 1 1.7342289239351703 -9.238538820208209 2.7866508766828115 -2 1 0
2609 1 2.8972081191163834 -9.499791291880866 2.6810973883217355 -1 -1 0
4083 1 2.87515614922933 -8.73459068381585 1.4665940958644292 1 1 0
4667 1 4.016875916230405 -9.49019324737302 2.5413821802522327 -2 -4 0
4652 1 4.117666942683937 -8.760739834495272 1.8527825059463043 0 0 0
5481 1 3.489306722319152 -9.677357609818825 1.5886991540081825 -1 2 0
2141 1 5.491363835934993 -9.65970521638533 2.4558056805031723 -1 2 0
200 1 4.9603551556041445 -8.668659268434212 2.4730471059582633 0 -1 0
4763 1 6.88010410300082 -8.6379524396337 2.5647757304087366 3 -2 0
2526 1 6.423203829590815 -9.529446174487022 1.5755979783038538 -2 0 0
986 1 5.826720446091738 -8.629050820695676 1.8909091004388274 1 3 0
5255 1 8.239461811249445 -8.889750033964411 2.1199674787852194 -1 2 0
1981 1 9.783043614698473 -8.678844561128653 1.586454897368955 0 2 0
3670 1 9.788588052305183 -9.914791048181412 2.250489165635597 0 0 0
5836 1 8.98628733020357 -9.536893860879951 1.5701958876920774 0 -1 0
6839 1 9.2948719946051 -9.066746329820594 2.698328901967445 -1 3 0
2694 1 -9.169520774452229 -7.844073491400067 2.2965202256792954 -2 -3 0
4917 1 -7.5476957687655934 -7.451957962599253 2.0402194571103394 1 0 0
3847 1 -8.255678970976463 -7.612686070545376 2.8242138287393397 2 1 0
661 1 -6.34230534657011 -7.6108220220408835 1.49079986672268 -3 -3 0
1504 1 -6.746067247225395 -8.564661051709031 1.4924682255668824 -2 1 0
6343 1 -6.735605824104754 -7.624214590751695 2.48430097262044 3 -1 0
2729 1 -5.747209907924974 -8.003765083357035 2.601943296717091 -4 1 0
5311 1 -4.9518308791303 -7.653079857462056 1.9844607759096744 0 5 0
216 1 -1.7002716284559052 -7.604528652382505 2.2058697371245084 4 1 0
865 1 -2.615317124677279 -8.337730598127916 1.5890985122618353 -4 0 0
3424 1 -2.7568309630992465 -8.302096890708274 2.648508192539762 2 1 0
2557 1 -0.6367809018697292 -7.650508639355778 2.5923073666958114 -3 0 0
1559 1 0.12347633386612923 -8.204393728391468 2.06598200278569 0 0 0
1272 1 0.6661746541693448 -7.3629625692982446 1.6068396948756565 1 1 0
3151 1 1.4230446306310414 -8.278012020578505 1.5759905819210969 1 -2 0
3518 1 1.0436744497707156 -8.50609558262549 2.8202602386254667 3 -1 0
1351 1 2.36336108867705 -7.640807234349489 1.7533029884556612 -3 1 0
4087 1 2.1171873510093646 -8.31566418447392 2.5256800513510225 1 -1 0
6052 1 1.4928630426213654 -7.327365379261213 2.422913618189433 -2 2 0
2617 1 3.2082088811889684 -8.519737803539604 2.3931669114241734 0 3 0
3719 1 3.1978895281105455 -7.1609615539266676 2.2781268310951712 1 2 0
5394 1 4.18617761345239 -7.899239877176618 2.3613186945034377 -5 0 0
566 1 4.833950951732473 -7.822889455654746 1.5975910177571255 -6 3 0
5293 1 6.7424375869453845 -7.399437619983987 2.662487032176174 0 2 0
6988 1 5.9095732151883125 -7.490103225761617 1.874672769566063 2 -1 0
5076 1 7.126737023592783 -7.320952697973868 1.622377464930329 0 -5 0
1405 1 7.264011847549625 -8.436045332761083 1.6011584316036465 -2 3 0
6525 1 7.8512257092677284 -7.878865189086669 2.3802816352616416 1 2 0
2642 1 8.965681794278966 -7.94169420186472 2.685529938705482 -1 -1 0
4003 1 -8.95571912533392 -6.8764164591643135 2.739664110602897 -2 1 0
4239 1 -9.616861211688288 -7.038919408884351 1.7387563659604777 0 0 0
4807 1 -9.894851501432957 -5.860266970356291 1.4361771141164439 0 -1 0
2781 1 -8.833322752470881 -6.187777655466264 1.812713803250278 0 2 0
6596 1 -7.96114464694856 -6.473279292282506 2.430781780129527 0 -1 0
269 1 -5.724890072878832 -7.0075319495448145 2.5469636098511517 1 -1 0
431 1 -7.051934807330139 -6.694666105129651 1.5171003309183315 3 1 0
3040 1 -5.7324381620179485 -6.051949619636883 1.535871980832886 -2 -2 0
1487 1 -6.5598953113036185 -6.061093056553551 2.3888658395847933 1 0 0
1665 1 -4.623556017625741 -6.036836147298901 2.796760846636852 1 0 0
4969 1 -3.1272889892841804 -6.9084324012087714 2.479570080419873 1 3 0
3214 1 -4.154950499742438 -6.699139402801122 2.040257946567698 -1 1 0
2621 1 -3.3500287071786676 -5.7589368980372 2.6680696887793096 1 1 0
3435 1 -3.1470272238896935 -6.009887300663727 1.6396269040615838 -2 1 0
724 1 -2.2189454982839285 -6.610804187903245 1.5540633798270713 0 1 0
2797 1 -1.8196781688353176 -6.003458921838542 2.84906418635654 0 -1 0
1975 1 -1.1266048311268315 -6.0637884808514135 2.0538085760088154 1 0 0
2686 1 -0.08879565179947196 -6.763021055933687 2.0561818330695676 -2 -3 0
4914 1 0.6146854885100894 -6.045604550128897 1.8111722699731632 -3 1 0
2361 1 1.8016754143473137 -6.545783407911288 1.8427295476030587 0 0 0
6673 1 1.895807258195805 -5.9677392253775725 2.5970708567608014 1 1 0
273 1 3.7567676454485275 -5.953064308243295 1.559058574410324 1 0 0
4783 1 2.9795146764733547 -6.070423450127098 2.5607937648079524 3 0 0
6880 1 4.31673439578702 -6.895578630178511 1.904811594341378 0 -3 0
5307 1 5.48000737892531 -6.418019685024774 1.6213267236399986 -2 0 0
5657 1 4.987098614385696 -6.372217722574783 2.673306914354949 6 2 0
6577 1 5.8893262180189785 -6.845153063888589 2.6503986281029315 2 -1 0
751 1 6.6175644946785335 -6.014562775618592 1.692223693514103 4 1 0
6222 1 8.051199076455427 -6.7531465031976685 1.8352450001689322 -1 -1 0
2428 1 7.462812922093383 -6.491036197931109 2.6124700840143773 1 1 0
3032 1 8.218136480268871 -5.737165692490975 2.295492998202443 -1 2 0
3369 1 8.719787219549085 -6.903042876169202 2.795229776363598 -3 1 0
331 1 9.24965290951369 -6.393598233718156 2.032727148973322 0 3 0
214 1 9.939586051284806 -7.0826531201762934 2.768582576082172 -2 0 0
4193 1 -9.947322284610038 -4.550151846566023 1.8668182138871323 -2 -2 0
1463 1 -9.654053610273698 -5.459808613450691 2.4207738434915576 -1 -2 0
2869 1 -9.143237248274952 -4.605717560549467 2.81309389898413 0 3 0
2900 1 -7.778253490106673 -5.5606289564171 1.7506765290991215 2 0 0
1224 1 -8.376476461238893 -4.802526536083009 2.0993772260278845 4 0 0
2450 1 -8.544470049254269 -5.673957753521969 2.753937745349083 2 1 0
1702 1 -7.04748914330486 -4.755382428998551 2.669081396455401 2 0 0
3378 1 -6.3689213764577035 -5.044630709122454 1.8158535194672403 5 3 0
5060 1 -5.278476074671459 -5.197183591169998 2.220950261777994 3 0 0
240 1 -4.402003031888723 -4.476526544291172 1.6658472290651039 1 -1 0
6140 1 -3.2381759461195747 -4.63881716579563 1.6396979638595635 1 4 0
2341 1 -4.1313914386116215 -5.45675353806043 1.8981395583118774 -2 2 0
356 1 -3.7648747586722253 -4.551517556096396 2.7090705324984445 1 0 0
2150 1 -2.355945952277958 -5.398728050705798 1.801790006231809 1 2 0
4781 1 -2.775695319994094 -4.811653364763862 2.6052953083555734 2 0 0
5614 1 -0.30985413111054977 -5.498325115753817 2.5421702823388994 -2 1 0
6540 1 -1.3102941912058794 -4.997518960684887 2.492703101301941 -3 1 0
1555 1 -0.5958558094765927 -4.387745005779411 1.909104884192092 2 2 0
2343 1 0.38945792811134716 -4.644687739656743 1.9957300437722878 1 0 0
4047 1 1.3855098952348663 -5.215639501397105 1.727292932647153 -2 2 0
3126 1 1.897753130573224 -4.7926720092291095 2.5792468162939053 2 -1 0
4437 1 2.5753703287523337 -4.566959416317719 1.638044358589178 1 0 0
3927 1 3.6403123447406083 -4.972613669904267 1.7479026973982825 -1 0 0
1070 1 4.101735946691629 -5.428910460525491 2.4804616909227546 0 -1 0
5152 1 6.999050392887095 -5.242315381807829 2.477154891992088 -2 -3 0
492 1 5.823483805162855 -5.639014689784326 2.4645356902655324 0 0 0
2496 1 6.329373858602408 -4.657506795227653 2.055128871205416 -2 -1 0
6965 1 7.893251311378312 -4.7999103308169575 2.7832978879611314 2 0 0
127 1 7.348570592723445 -4.36654337289246 1.8493872228380965 -3 -3 0
5008 1 9.292889715202767 -5.288695156643233 2.130408104040222 -1 -4 0
1485 1 -9.322765161699174 -3.635587914732633 2.794889865366686 2 1 0
1244 1 -8.771385506726062 -3.7037690230558145 1.7729449802401631 2 0 0
3121 1 -7.687312395005282 -4.046329698055584 2.499322006427717 1 0 0
676 1 -7.8405093908567824 -4.114916528669695 1.442692772216979 3 -2 0
3228 1 -8.202593262383893 -2.9329511542822138 2.2867383289073144 3 -1 0
115 1 -7.338024584953295 -3.0219601896709603 1.6649927205619852 -1 1 0
6815 1 -6.421315299338732 -4.013917471958574 1.70440549298887 1 -1 0
5249 1 -6.894875238083438 -3.302529882613623 2.6101059266044357 0 0 0
3893 1 -5.304374463654212 -3.4501117303899633 1.5607333436739277 -5 -1 0
4396 1 -5.437043907645026 -4.175531763514902 2.282481426585448 -2 1 0
6519 1 -5.585252752396236 -2.9711513597025725 2.5151505360694 3 0 0
5608 1 -4.5091376664933644 -3.6413183752429577 2.320889429673622 2 1 0
999 1 -3.611762502401798 -3.1141063355430822 1.984553867317215 0 1 0
5414 1 -1.8393983188900915 -4.076122913318088 2.6379084868595726 2 -1 0
3393 1 -2.587203206606702 -3.8088591547330286 1.923824784864385 0 -3 0
429 1 -1.0609623845393668 -2.9368904639347075 2.2635363389118073 0 1 0
2390 1 0.24123240286633404 -3.6655976633786214 2.2543959200825157 -2 2 0
163 1 1.0451216982585492 -2.901375310088129 2.301605398916959 -1 -4 0
4056 1 1.5239510167146288 -3.8833477519859474 1.9866698638698141 0 -2 0
910 1 3.9809716080680237 -4.13013165452198 2.739011299841967 0 -4 0
4159 1 3.3870655876554903 -3.6935260866733297 1.8552724314079243 1 4 0
6000 1 4.655364687621787 -3.728104501349184 1.912361913681494 -3 -2 0
3064 1 4.295073920943455 -3.1955515996479886 2.7228746053040243 0 -2 0
2434 1 5.428845315023407 -3.309880468598352 2.59937648439032 0 1 0
16 1 6.243677565159734 -3.650530791735653 1.564599576950541 -1 1 0
1934 1 8.369913833713417 -3.2001448321368464 1.9974153854838832 1 0 0
1237 1 7.741870865331559 -3.6643256451369544 2.728443145435747 -1 2 0
1382 1 8.600343503204236 -4.150394747947056 2.2816056085532765 -2 -1 0
2860 1 9.397075090789874 -2.8733129242028608 1.7425497235381788 -1 -1 0
4601 1 9.492867754143445 -3.3166852756124743 2.6916475475680746 1 -2 0
1057 1 -9.538140302563283 -2.7075369941063108 1.6765399805340317 1 1 0
985 1 -8.794860892266334 -1.972008155934619 2.037953120067858 1 0 0
646 1 -9.85456425408785 -2.3135557746440676 2.8371602720415368 -1 1 0
4790 1 -7.799091291456647 -1.9566522709292442 2.0810030361855003 1 2 0
3595 1 -6.90184005455416 -1.9014238251355666 1.6222014170790109 5 1 0
4330 1 -5.73875723131153 -2.1363676361166752 1.793942694159452 3 0 0
3110 1 -6.38889232907274 -2.2844783897559937 2.7255301087469603 3 0 0
617 1 -4.843713495827002 -1.4721860117649828 2.026323493035232 -1 0 0
5301 1 -4.6811695541295935 -2.417624627083532 2.65519821921284 0 0 0
3610 1 -3.9747259932165173 -2.1368913733861863 1.8116783689702223 1 4 0
5697 1 -2.8847568670313875 -1.7240573840988835 1.9776359775081738 2 -2 0
4839 1 -3.4675413538083792 -2.4658519193320676 2.769027075198789 -1 1 0
6682 1 -2.6124687090610443 -2.728153412989707 1.9037078519072834 -5 -2 0
6615 1 -1.969009143428999 -1.8502389793821674 2.6904318913567438 -3 0 0
928 1 -0.866567769513869 -1.7454734512757895 1.864524049425026 -2 -1 0
6296 1 -0.12617293629504606 -2.7775764997883376 2.712885071918254 3 -1 0
6534 1 0.006758706369569873 -2.5622899042793548 1.7222338397448338 -2 1 0
6686 1 1.764911602225146 -2.2833520895579706 2.6766184376780173 -1 1 0
3681 1 2.600907652038651 -1.6503829344656413 1.9952630545192631 0 -1 0
4176 1 2.6199473956125376 -2.835397362806251 1.8071009466684416 -2 0 0
3241 1 3.8968196072247743 -2.741290447451905 1.6140315220754975 -2 2 0
5999 1 4.192425499861281 -1.6037530577057209 2.7620248004442622 2 -2 0
3778 1 3.311812852854241 -2.629527166998294 2.648644013499316 0 1 0
1492 1 4.982423336132867 -2.5838397117070695 1.9965059536011394 0 -1 0
1773 1 6.2084911636852675 -1.9726660912679 2.114529444643222 -1 0 0
1560 1 7.800280484695747 -2.393582704044636 2.3561650454965517 0 -1 0
6659 1 9.853519709184727 -1.7997785693375017 1.8669219744581589 0 -2 0
2391 1 9.196490627152 -1.8805654233080644 2.8362644390327008 -2 2 0
2567 1 -8.669481974256856 -0.8556691962296784 1.9615695336974948 0 -4 0
5220 1 -9.262528343553141 -0.30063881313457097 2.8014804636595745 0 -2 0
2100 1 -9.48597958356088 -1.3200519037342926 2.6178281527895315 1 2 0
6948 1 -9.939341255266097 -0.6055760905850336 1.8355449578784824 -2 2 0
2222 1 -7.836021395635624 -0.9061062161425402 2.6211033931810266 -1 -1 0
1387 1 -7.2706273047087375 -0.8211735507258837 1.7703760861853455 2 2 0
945 1 -6.034841857737195 -0.8325420666222608 2.0266858030186197 1 2 0
4828 1 -6.703178967156806 -1.2540225087460204 2.8244434537108134 1 -1 0
2648 1 -4.890119777520662 -0.7414725646442424 2.7547607722533884 1 1 0
3974 1 -5.127655162003785 -0.4635616628001148 1.4689409981099502 -2 -2 0
4290 1 -3.8998159649690773 -0.9847648301317165 1.535179843752223 5 3 0
4533 1 -3.999063657757402 -1.2416417533284594 2.5392361297471835 1 2 0
860 1 -2.8823978449714542 -0.6590441705227602 1.7668599035879484 2 1 0
4405 1 -3.389879234608964 -0.42706631898692776 2.6695815838566253 1 -4 0
312 1 -1.78373413817559 -1.0970643408944682 1.67697265136355 -3 0 0
3891 1 -2.2368555420291334 -0.5133315512849222 2.615735315549063 1 -1 0
5696 1 -0.8516964577534497 -0.4684923770100077 1.6783320286913437 1 -5 0
4182 1 -0.9631180176809887 -1.25745250365563 2.847343719188102 2 0 0
3136 1 -0.06418160364089263 -0.35802763263850396 2.425830753273083 -6 9 0
1016 1 0.09463010268053909 -1.357418245252155 2.3205082655023026 -2 2 0
3708 1 1.0554297195612246 -0.43373941642198294 2.222979461315419 0 0 0
5783 1 1.7897918839795832 -0.6473441808024507 1.5467879526673556 1 -2 0
5371 1 1.7933893169740007 -0.9389044816339154 2.7478681551937374 -3 -3 0
2678 1 2.6209992064423435 -0.0037396088337793842 2.1164729354188885 -1 1 0
1347 1 3.2878590295657784 -1.0016071465140197 1.6251952452117384 0 1 0
4436 1 4.001487586991168 -0.17834975571181866 2.8296410564259724 2 0 0
4106 1 3.153642489551087 -0.9333311057537871 2.606157987391107 0 -2 0
5213 1 4.298668356109619 -0.8688509872805253 1.9834673568889807 1 -2 0
893 1 5.320787054500382 -1.3673427128271582 1.8950527659408993 1 2 0
956 1 5.573399929149363 -0.31147366759157846 1.6502807723693498 -2 3 0
1866 1 5.121775126970644 -0.44824124110502844 2.7517472248880033 1 -1 0
2012 1 6.7535786791527235 -1.1878868286773332 2.5188691888412356 0 0 0
3751 1 6.103187929737611 -0.3162521602950042 2.6484328308713305 -1 2 0
4836 1 7.825066009498003 -0.8754662894417389 2.0425825344228814 0 2 0
1635 1 8.743101027793873 -0.39232501487074556 1.9754997230707858 -2 -1 0
5989 1 -9.102296669300157 0.2918488596958423 1.9234047401794132 3 -1 0
4519 1 -9.57623782093941 0.7473236820237263 2.787220155831764 -2 0 0
4190 1 -9.576821930707071 1.2645241667585103 1.8369748667393448 1 2 0
1862 1 -8.463981669903378 1.0254717336104846 2.7038577475609986 2 1 0
4872 1 -8.013829903309269 0.1377803830341643 2.181815374851689 -1 0 0
6811 1 -7.380438881746591 0.6271473140544633 1.550394815205629 -1 -1 0
6835 1 -7.381645723034953 0.7075024694634029 2.613581116516496 0 1 0
2691 1 -6.478948956143177 0.1772603913411944 2.0578886307749458 0 -4 0
2049 1 -6.403943660889147 1.3524508928140195 2.240496293043732 0 -1 0
3401 1 -5.49494153667357 0.33745028539942423 2.4013524561023387 2 0 0
4673 1 -5.5145579506449245 1.4138224044501844 1.8106919132807415 3 0 0
3183 1 -4.964235744117315 1.3910872376651457 2.80252582146713 3 -1 0
940 1 -4.2263276310318245 0.6358510883781286 2.1141978678019346 2 -4 0
5716 1 -3.231097861532144 1.1399460251001965 1.878116200858607 3 2 0
3864 1 -2.5568393221457866 0.3980319993631763 1.7805594286338005 3 1 0
5707 1 -1.4429711016629945 0.40357495508237656 2.1076512616881904 2 1 0
4717 1 -2.667642071547658 0.6243458938265469 2.7506940820658357 4 -3 0
5946 1 -0.5099690663713855 1.2632424197304428 1.6151769097736062 1 0 0
5954 1 0.37360188254821664 0.33446036945369567 1.678679828665218 0 -3 0
3421 1 1.2498787122617323 1.1796354779573324 1.6332846259702607 -1 -1 0
1375 1 0.25570614655879975 1.3840261210246374 2.5324479580333006 2 1 0
5391 1 1.5011626028196352 0.4389771844017422 2.355914257550858 -1 4 0
4452 1 3.036274958470264 1.050174606747267 2.190254703370043 -3 2 0
2644 1 3.550889445919967 0.033287113871863484 1.6950910171875313 0 2 0
1232 1 4.148641151495402 1.0586397629288609 2.102849143993824 -1 1 0
6119 1 4.646955720689672 0.12013675931254725 1.7345141363217578 -4 3 0
6450 1 4.937754307240064 0.5462962015771783 2.6359334143593336 3 1 0
5110 1 5.666375316208566 0.7192953867658994 1.5927903683006015 -1 2 0
5256 1 6.777303870369349 0.7040758551051148 1.4630754576546945 2 -3 0
1519 1 6.125600277992609 1.1920343760186976 2.383238761963952 3 0 0
5678 1 7.70882498830734 0.34515617871954607 2.3301368811971903 -1 -4 0
504 1 7.3704497339049055 1.4171831385639266 2.005522115876398 0 -1 0
2822 1 8.26688898193652 1.049706167697834 1.490608177939867 -1 0 0
5570 1 9.56134198163476 0.6314340317116177 1.7725496132796665 5 2 0
3263 1 8.721985381127084 0.6534034440400366 2.465870016595621 -3 3 0
243 1 -9.197149163702173 1.7552920682294653 2.6192743772487677 -1 0 0
6056 1 -8.574516533186333 1.7736913580598845 1.7443899452024734 -4 -4 0
6909 1 -9.762346105887644 2.2944582157267943 1.559532591916703 1 -2 0
1158 1 -7.554491395224901 1.6175649569067119 2.050531319920359 1 0 0
890 1 -8.311713215059783 2.2904267397165174 2.5180739271005055 0 0 0
4393 1 -7.647609314270573 2.8120379660697625 1.65798492182884 1 0 0
571 1 -6.699256399910658 2.1161804189994666 2.7799605647320607 -1 -1 0
4599 1 -6.659894384408676 2.280177155874481 1.6441783411457171 2 -3 0
4315 1 -5.694674844411169 2.493584687266851 2.1801117903102027 -3 0 0
1669 1 -4.629034590182473 2.4225012358750555 2.597427349722002 2 -1 0
6131 1 -3.896502557382367 1.9772768605812487 1.7954895500001564 1 0 0
6849 1 -3.5367511584341913 2.6404847924834827 2.4753001513139328 1 0 0
4968 1 -3.727090145609176 1.4363598856872253 2.7693631864283774 12 0 0
1722 1 -2.1320184202566113 1.4702798785628826 1.5038520699868385 -1 1 0
4329 1 -2.5280283571353346 1.7218575237810736 2.436765680491623 5 -1 0
6752 1 -1.7485139968685413 2.525391938237932 2.7758174556147037 -4 -1 0
5260 1 -2.553135726018329 2.5694469242174627 1.800466585812655 0 3 0
6704 1 -1.275899602323426 1.5337426325930967 2.439319588813083 -1 -5 0
2954 1 -0.1249729724002928 2.2075531527160632 1.627748171333407 0 -3 0
2380 1 -1.3913519204066256 2.3240531872166503 1.7726693356361434 -2 0 0
2338 1 -0.43973876807504314 2.4372150540672304 2.663888349771852 1 0 0
2806 1 1.0846849502634097 2.500442433252334 1.4848903292370828 1 1 0
3692 1 0.6490966412111315 2.348337344724692 2.375348454974988 4 -1 0
1781 1 1.7197499951570745 2.455495010367002 2.454095770776524 -2 1 0
3809 1 2.1333875478494093 1.4722570697858417 2.4677077342935423 1 0 0
6091 1 2.864012306538455 2.6770524557569613 2.605942158919196 -4 -1 0
2529 1 4.102534530136955 2.151661908277079 1.9373132391422074 -3 0 0
1605 1 4.580972153584926 2.6023068583920805 2.7682587981869125 1 -7 0
40 1 5.39613535491011 1.9097955449561004 2.3530669309028043 2 -1 0
2874 1 6.422297787329242 2.086129523476151 1.550001799846594 1 -5 0
4118 1 7.933656896453536 2.429973554381775 1.6871558594618692 3 1 0
4107 1 8.40127202892622 1.6887200509674887 2.338963041420848 -2 5 0
4205 1 9.041438898271092 2.321498688229377 1.7192992533257743 1 3 0
3432 1 9.512395109024972 1.5155060756413536 2.5045134926277184 0 -2 0
4610 1 9.100856949547435 2.482164319234026 2.794067571022076 2 2 0
4404 1 -8.999782984956594 2.8611237194401733 1.900539065898495 0 -1 0
4568 1 -8.614306661745449 4.174149491680715 1.8399837832655763 -1 -2 0
297 1 -9.68047617803073 3.7489007828443657 1.585684416776842 1 -1 0
4747 1 -9.311381707066115 3.8462284263546844 2.763148666701677 1 2 0
4320 1 -8.375491839900004 3.384121597447117 2.464637573046302 1 0 0
5701 1 -7.443488296149431 4.035519720874994 2.4640072827159387 -1 0 0
1691 1 -6.806036966478451 3.287138666792185 1.9564368810155597 -1 0 0
2050 1 -5.736705725233218 3.396305531303785 1.5216020831904882 0 3 0
1168 1 -6.382722503620484 4.2012836533476 1.6311192188183514 1 -1 0
1836 1 -5.929890912128183 4.091080381066936 2.576418163846306 2 -1 0
2982 1 -5.1778968941230765 3.4059866888612116 2.566504002651099 3 0 0
4520 1 -4.311878837635059 3.7272668654357783 2.2579429883857802 3 2 0
51 1 -3.0747664411337094 3.6044005965857364 1.822862529394848 -1 -2 0
3933 1 -1.991884868589453 3.4364070397225106 2.282133342178563 0 -5 0
79 1 -1.7300201631041154 4.125025805765821 1.4681755427369814 -3 -2 0
3210 1 -1.0660930221101341 3.6717959846188353 2.749746376409898 4 0 0
29 1 -0.8289372104546544 3.300700222586659 1.5973407551437115 0 -2 0
2245 1 0.5370757604226138 3.9496226328261415 1.6363814668988992 2 2 0
1199 1 0.023727123524630234 3.352060318088424 2.4462443142755643 -1 -1 0
2871 1 1.1035380201595262 3.3835986458696077 2.507837592634424 1 0 0
5878 1 2.34833462220765 3.175805363961099 1.7404164419962465 -1 0 0
6900 1 1.873815291752881 4.19371637482027 1.5908293473860629 0 0 0
4154 1 2.729167045282034 4.090940155915478 2.2923048712083083 0 -3 0
1293 1 3.3393349053096704 3.158153073930996 1.587277709665599 -3 0 0
6039 1 3.764687395652291 3.397343603552795 2.5134113571906185 0 -2 0
3835 1 4.949753090051549 2.8911345974774867 1.79425750209294 -2 1 0
3669 1 4.754600194825269 3.968531356479898 1.886895993879314 -1 1 0
3022 1 5.475807223452457 4.034582085988591 2.8221744689018124 -3 2 0
1961 1 5.79881162252123 2.8941595607013366 2.723298635373769 -2 1 0
5521 1 6.550965693891581 3.7196985701961105 1.6428997337707019 0 0 0
2929 1 7.208080558840122 3.10998112571219 2.3146088967299074 0 0 0
6595 1 7.72390982091009 4.076572068452224 2.007227544783876 0 -2 0
2329 1 8.355237922426898 3.240812718589316 2.0097188511142217 -1 2 0
5534 1 9.939764776600132 2.9615388817416695 2.330123048115633 -1 2 0
17 1 9.202985192939108 3.5588860106368445 2.5936869121616257 -1 -1 0
4638 1 -9.882027767194248 4.762069058071864 2.079275771589121 0 -8 0
6205 1 -8.668239645152028 5.227086764276089 2.18646700225755 0 -2 0
5769 1 -7.707269978869005 4.778813390622599 1.8441751432009132 1 1 0
1905 1 -6.784002301607868 4.963994072151005 2.602617053090421 0 -2 0
5950 1 -6.669482902453912 5.331704839524401 1.5072377604162355 4 -4 0
6286 1 -5.803544002996062 5.094262592397756 2.3741074217338545 1 0 0
365 1 -5.080791020666686 4.429699414342421 1.7538631749395586 0 -2 0
5824 1 -3.5672281724232198 4.410011849681268 2.4548924978688818 1 -1 0
1947 1 -4.0904073571385595 4.872842018068485 1.6868934455939424 -3 0 0
4552 1 -3.175064418551821 5.5744023009719 2.7053678340884177 0 1 0
2722 1 -1.785083879026252 5.135146428746103 2.194752946907712 0 1 0
5896 1 -2.806840061563295 5.0623902325917705 1.9305750179627408 2 1 0
410 1 -0.35584915048956034 4.67033848510524 1.6948006991886857 -1 -2 0
5667 1 -0.5449879229621012 5.272062210117175 2.5544599803053587 -1 0 0
2345 1 0.12408494648867897 5.689536112783907 1.846492065371739 -1 0 0
5079 1 0.5949824183086906 4.85487876899751 2.41546868693081 1 -1 0
66 1 2.332362937066454 5.085408749521941 1.9282130594377704 2 1 0
6800 1 1.5580365653359858 5.46411310681736 2.805630858091091 0 2 0
3092 1 1.4868194179599037 4.366989415732786 2.589101378114679 -4 3 0
2629 1 3.700092472745844 4.502715601696053 1.8498744072382618 -3 -1 0
1655 1 3.5678760745180704 5.191921124437019 2.6853623561370847 -3 -1 0
4335 1 5.595311258173795 4.626117482250017 1.8480977750812395 0 -2 0
5398 1 4.595472102195601 5.041536253094054 2.0843236810591805 0 2 0
4251 1 6.336875026429932 5.560666007963504 1.5989484245460224 0 -2 0
2675 1 6.665672870107929 4.456850980122431 2.2450739743767496 3 -2 0
74 1 6.925449329853035 5.58224932398568 2.625323078141579 -5 -3 0
1242 1 8.565978527335547 4.45969930442134 2.6565956377986595 -1 -2 0
535 1 8.38110002714144 5.124859803381715 1.6982563260191814 3 0 0
5288 1 7.33478547039038 5.054785013554607 1.6843212788047923 -1 0 0
2533 1 7.983532856957018 5.370551879722956 2.805254509917006 0 0 0
5246 1 9.179787905395868 4.45913740069502 1.7933206609148649 -6 -7 0
2657 1 -9.592210493595724 5.877613556664227 1.883287601716601 2 -1 0
5280 1 -9.171223970792019 7.097116006052494 2.4227028097950423 3 -1 0
2547 1 -8.51554701647348 6.7271842684264564 1.6152177343193925 -1 1 0
2270 1 -8.1597242440434 6.253638871829603 2.5324881682729123 2 -1 0
525 1 -7.682287848807097 7.115747005750572 2.069658480724789 2 1 0
2205 1 -6.818149168330617 6.35375185686943 1.9338542409000263 -1 -3 0
822 1 -5.762974293967468 6.402806942815941 1.9239936587276594 2 -1 0
2192 1 -4.9023137092292215 5.796292657024496 1.6384227310730413 -2 1 0
3542 1 -4.809655455278592 6.663151485630536 2.5218754236921765 1 -2 0
6482 1 -4.321114564711889 5.749521634073015 2.5867729957438677 0 -1 0
1025 1 -3.4047745681869954 6.145894505648981 1.6971617334237121 3 0 0
4100 1 -2.3773214065183517 6.146864065667005 2.1188526317599474 3 -1 0
1030 1 -1.6057113337912132 6.816325433013119 1.8122061757225707 0 2 0
4030 1 -0.8348113176865561 6.152136987851647 1.64687243809564 -2 1 0
1807 1 -1.3258131790432248 5.871458877997366 2.7354473701551134 0 0 0
37 1 -0.025043390524814975 6.735067360443059 2.2710200532796554 -2 -8 0
6978 1 0.5416230255419779 6.063022009632823 2.8145934112804816 1 -2 0
5550 1 1.1126448350202067 6.091814805952765 1.8110869569541743 2 -1 0
2031 1 0.9438952782689302 7.1198210894088865 2.119845837562384 -2 0 0
804 1 2.604942285697274 5.768646177145832 2.7662398613047814 -3 0 0
5814 1 2.171217534449637 6.348436007528932 1.8315215279330612 -1 -1 0
3586 1 4.234548928350904 6.040113325140424 1.6672362875302555 0 0 0
4553 1 2.8842370508316497 7.062493346665955 1.4871955612738494 -1 -1 0
5962 1 3.3923455093464323 6.3244972641077215 2.2767245152795152 1 0 0
5641 1 5.156657425399846 6.066021862541568 1.9541267791450128 -1 -2 0
4231 1 4.420418963969657 5.837864855265643 2.7810273061354716 1 0 0
2736 1 5.3139166994099245 7.017115812078183 2.321912453561116 -1 1 0
987 1 4.350092339905775 7.090909437811162 2.761923362370734 2 2 0
924 1 6.018741755488008 7.094618940866726 1.5450066665485591 -4 -1 0
1735 1 6.183300184256715 6.330281415767725 2.4249929237280528 0 2 0
5994 1 7.283938825238429 6.394680706239028 2.076620118723827 1 -3 0
1354 1 8.352052945008081 6.4162932404176765 2.301834169840697 1 -1 0
5900 1 9.43529852129844 6.480704587404253 1.7965725450848344 4 6 0
339 1 9.125288984785271 7.136131603758787 2.6659364078760635 -3 -1 0
6638 1 9.917928673817341 6.48097891793433 2.7524830320270812 0 0 0
5640 1 -8.899379957004403 8.02406027303856 1.896222596667771 0 2 0
4225 1 -9.82107500328971 7.298787260853298 1.5172943003737616 -1 -3 0
6688 1 -9.96234090553347 7.844315359215707 2.3762621386794445 6 -2 0
1146 1 -7.346417669318789 8.108498543897035 2.506405669033281 0 -6 0
5133 1 -8.244479597875191 7.5049108884864255 2.781719225450746 1 -3 0
5525 1 -6.423297903473902 7.3500075520080195 2.4128676471908714 1 -2 0
5937 1 -6.3635764964289265 8.503047967518777 2.437667666908864 -1 -2 0
1992 1 -5.482321813339051 7.7138055754613735 2.475379898300008 -2 1 0
579 1 -4.890682886723598 7.231148286086575 1.6385007349828138 -1 -1 0
4637 1 -4.724955102534803 8.45532407530136 2.404147103347385 1 0 0
3144 1 -5.551724677485277 8.51777762587555 1.5760732808973539 -3 -4 0
5509 1 -3.525311348139769 8.24957015931733 2.0037158454449333 -1 0 0
2105 1 -4.185597895303101 7.488115475044598 2.3381443756579183 1 -3 0
6083 1 -1.556263848424488 8.07771436148949 1.765427230004077 -1 1 0
6679 1 -2.5780075472408517 7.931192260686253 1.5479609860916264 2 -2 0
6086 1 -2.248729030087894 7.451312892368821 2.5401419905567644 2 -2 0
4554 1 -0.4367323889468978 8.089797741927173 1.5855742919430975 -3 -2 0
4745 1 -0.9433906187233682 7.396244193475312 2.5569482347457804 1 -4 0
2964 1 0.31913099329068256 7.870816380068617 2.4438254507602286 1 2 0
5852 1 2.2818256682853773 8.151133670504947 1.561162298652656 -1 1 0
4144 1 2.136735554149511 7.263471314298928 2.2545851375480717 -1 2 0
4830 1 2.778265016962388 8.213286640774353 2.472454275093152 1 -2 0
6263 1 4.14094085060967 7.910778248635853 2.215108636769348 2 -2 0
5434 1 5.331521337584203 7.844241031467939 2.8494161479323323 -1 1 0
3390 1 5.72333288716613 8.311560195245153 1.8521244872027678 0 -3 0
5158 1 6.311112873377435 7.67580926457528 2.3655907557994293 0 -1 0
1476 1 7.575492026502581 7.374007879415294 2.380604206691131 1 -5 0