LAMMPS data file via write_data, version 22 Jul 2025, timestep = 2050000, units = lj

5000 atoms
1 atom types

-10 10 xlo xhi
-10 10 ylo yhi
0 60 zlo zhi

Masses

1 1

Pair Coeffs # lj/cut

1 1 1

Atoms # atomic

4438 1 8.919848366598295 -4.222849185246039 1.3765024999972562 -2 0 0
4648 1 -8.41670995371879 1.8808883623000412 1.4050451402723683 2 -2 0
4544 1 5.519829575993544 4.372168663511922 1.4100028513866798 4 2 0
1556 1 5.624146882427523 5.6835966319057425 1.4073444087803426 -1 -1 0
4418 1 7.106897123717859 5.886282438890733 1.361627662770626 -5 3 0
484 1 -9.217001821675224 -8.924868194391738 1.66350964998548 2 2 0
3443 1 -8.682884600028821 -9.939227619374917 1.9492912455502398 2 0 0
4352 1 -9.803836072343643 -9.883510508232535 2.19718119585394 0 2 0
4722 1 -8.5700775142009 -8.959922103452014 2.4510213013773905 3 -1 0
1075 1 -7.996346941960855 -9.167136836611839 1.6767412704778561 0 2 0
4022 1 -8.036752267812547 -9.822092537601279 2.764760219876677 -2 2 0
2853 1 -6.934225655322691 -9.483517220741154 1.8803609248465103 -1 2 0
151 1 -6.072123705388886 -9.673266339227697 2.6106935110147313 5 -2 0
354 1 -6.416561041763818 -8.575942530430764 2.38628361610551 0 -1 0
638 1 -5.511107226884092 -9.514071791757303 1.6312356893751618 -2 -2 0
1940 1 -4.386498108736642 -9.026036552409103 2.146276668814613 -1 -1 0
797 1 -3.0769656874056985 -9.408715579455807 1.762676480819994 -4 2 0
4435 1 -2.3512209372202215 -8.79820454746728 2.7992240259469168 0 4 0
625 1 -2.0242731854352716 -9.627873830506633 1.8732158067052216 -1 -1 0
3785 1 -2.834622457083968 -9.863179072564542 2.653382326110763 1 0 0
3548 1 -1.5901213650932124 -8.571615477725668 1.7125391830902246 1 -2 0
4007 1 -1.001791410141288 -9.454886563550648 2.1252086224572992 -2 2 0
4942 1 0.8585843423942735 -9.47485474496402 2.8464649405320115 0 1 0
3521 1 0.362745150617367 -8.945370685146631 1.8492751114847215 2 1 0
4563 1 1.4405971017281336 -9.377944286535625 1.733370238562534 -2 1 0
4078 1 2.1148518986477436 -9.655203619524263 2.71475532862839 -2 0 0
4737 1 2.3626978538821914 -8.964316919381508 1.988961263035047 2 2 0
3012 1 3.3786149305769935 -9.849595857316713 1.6991962092493544 -2 0 0
2454 1 3.713556722338763 -8.786273502810655 1.883931753188619 -1 3 0
3173 1 3.626680727977068 -9.774621708976493 2.7999906769095833 1 5 0
3766 1 5.0361905775013005 -9.249957038153067 1.9337044284127771 -2 2 0
174 1 4.34847721034886 -8.911054387303205 2.786329483988863 -1 -2 0
1169 1 6.1897441504360735 -8.705431754733942 2.223534608194159 -1 0 0
3537 1 5.990020050174822 -9.793427413288141 2.5295343638342036 1 1 0
414 1 6.992665940499014 -9.972106851052668 2.146490734861308 0 0 0
3276 1 7.175233122889 -8.79751228604997 1.8255741400471568 -1 0 0
1403 1 8.132493519105497 -9.891468111157595 1.6749777606594232 0 -1 0
2951 1 8.262798673135618 -8.682728267095202 1.811832869781446 -1 1 0
4337 1 9.978136963560722 -8.844809897122886 2.395574628311691 0 0 0
4829 1 9.059494370915765 -9.307734764168375 1.4532903588656363 -1 -1 0
903 1 8.827047551742476 -9.540003778833121 2.3846921175594673 1 1 0
1842 1 -9.625741900327075 -7.837428091104534 2.5862639537878307 1 3 0
2101 1 -9.632897546952798 -7.918303425975341 1.472307754674721 0 3 0
2834 1 -8.982148430698977 -7.177718803635199 2.0215317799111223 -2 5 0
3464 1 -7.638781689089566 -8.518658559838167 2.6361475222050275 3 2 0
2342 1 -8.501361964549364 -8.19988168122171 1.6774026895459626 2 1 0
3288 1 -7.512897057125486 -7.327663730455852 2.125377256351785 -2 0 0
501 1 -7.323057540219777 -8.263182153188986 1.5794467953715632 0 1 0
4852 1 -8.434353701777315 -7.873600747484776 2.7429158123592283 3 1 0
1744 1 -6.4944275741361 -7.6048817248162335 1.673782709258647 1 -1 0
1904 1 -6.3286839351369375 -7.16795934278594 2.7319982340895903 1 0 0
3253 1 -4.403262735044247 -7.967375769090269 2.2600970442979342 1 1 0
2725 1 -5.271501117759741 -8.517762788630211 2.5255953393213875 -3 -1 0
3559 1 -3.3366329867708324 -8.12410268638889 1.6192206067873909 0 2 0
4840 1 -2.549117182868802 -7.75971381446853 2.220857608420649 1 -3 0
4582 1 -0.5853148210803933 -8.44112366840695 2.5653755412435393 1 -2 0
2497 1 -1.415505954978085 -7.7034885529491355 2.624684053748295 3 1 0
2298 1 -0.3601485344443662 -7.2340294941602545 2.6593614313656344 -1 -1 0
337 1 -0.7210250533919731 -7.856252686965841 1.7860817742844146 -1 1 0
1824 1 0.4976803143473266 -7.94112160267757 2.148068403984692 3 0 0
2017 1 1.3947331395994922 -8.533636841941446 2.6318434844113816 0 -2 0
212 1 1.6069277368296921 -7.753204144060771 1.9566000424702672 1 -1 0
4720 1 2.7551652908532587 -8.111210701193892 2.366131522640002 0 0 0
2086 1 3.946144195612941 -7.5095722944868255 2.459126653374197 -1 10 0
1643 1 4.340493633934995 -7.916280026616066 1.5543744530996186 -2 0 0
884 1 5.48528815670902 -7.902904754135136 1.5989846273856747 -2 -1 0
2582 1 4.918224952402014 -7.868442241424984 2.666322171203871 -1 2 0
2837 1 6.059031382524929 -7.852597301070131 2.8567928669572495 1 0 0
2871 1 6.507483928269317 -7.857694948783637 1.8253989401778155 4 -8 0
633 1 7.288176713709715 -8.17415234668872 2.7259135745708876 -2 0 0
4206 1 7.757320069026146 -7.787922807780764 1.8023001191435393 7 -1 0
1419 1 9.096405990418873 -8.100995215760134 2.480935156369316 -1 0 0
1980 1 -7.9903467193640045 -6.4851849239664165 1.8095540909069638 0 0 0
831 1 -7.190428309321923 -6.102842594819442 2.559079438269864 0 0 0
4769 1 -8.347101618480428 -6.543817182576529 2.773202664339626 3 4 0
2857 1 -6.138142497055442 -5.948597800632338 2.4943471719137174 0 2 0
2712 1 -6.766353966412065 -6.5094882307520745 1.7157818445158641 1 -1 0
331 1 -5.81939537492282 -6.2643201967380655 1.5051630831268181 0 0 0
2477 1 -5.459238409397411 -6.916506567972975 2.29314497434656 0 1 0
3232 1 -4.673759156682838 -6.2424112527933735 2.5375872759329083 -1 0 0
3540 1 -3.5454187302770936 -6.89304133994165 2.29661768249733 1 0 0
4928 1 -3.542055343978214 -5.887819145419189 1.8090484193225407 -4 6 0
3497 1 -3.040204835137044 -5.9224346835122175 2.7955672511520873 1 -1 0
2321 1 -2.2011356262944193 -6.7936205973935 2.5354860207137175 0 1 0
2106 1 -2.657846283495672 -6.518029720078407 1.6810642895688714 1 1 0
3065 1 -1.9803038723768447 -5.765478703847429 2.0821446520033837 2 3 0
3722 1 -1.3708536718598139 -6.942272438783032 1.877305398495728 -2 2 0
1833 1 -0.9399998533409808 -6.288936877546576 2.8406686945831843 -2 2 0
2056 1 -0.4236247560554963 -6.566799792545287 1.8294953850296407 -1 1 0
4404 1 -0.04474333473710642 -5.801186501647521 2.6436779915204576 3 0 0
4219 1 0.11758016539729395 -5.797802368346913 1.526184189135458 -3 0 0
1575 1 0.5882470657295635 -6.763872807864334 2.825315840940406 -3 1 0
228 1 2.819613302367393 -7.102359043154894 2.7235052882503052 -1 -1 0
913 1 1.9598273357701255 -6.446706932789219 2.6901205993537873 1 -1 0
2812 1 2.8241090418146393 -6.1987329731230005 2.004114685783552 1 3 0
511 1 3.324238202669759 -7.0914051641863844 1.7266549833414537 0 -1 0
474 1 3.91709620643718 -6.181055095296114 2.5811692558421737 3 0 0
1093 1 4.274014684883418 -6.629347841195705 1.630288211531874 -2 2 0
3032 1 3.6422908137942147 -5.769814784089134 1.5549110415022938 1 1 0
4997 1 5.539173307876431 -6.956689608172965 2.3651047381296633 -5 0 0
4303 1 5.285771394191094 -6.672887517611087 1.442340600009858 -4 4 0
3776 1 6.568703448463003 -6.479340306163884 1.639642118348781 0 1 0
1193 1 6.828535374007856 -7.0722533967169054 2.766682362409398 0 0 0
4401 1 6.748865221504321 -5.719506720303276 2.3810088258955764 -1 2 0
3088 1 7.940637478658988 -6.227243776449404 2.0350486429349792 0 0 0
3681 1 7.960071880093821 -7.050105047572361 2.820711210668523 3 3 0
2822 1 9.860608886518802 -6.9979653703652565 2.073704844920272 1 1 0
3361 1 9.137944904049794 -6.444964223009973 1.4493970380892096 2 0 0
3005 1 8.941369998630748 -6.461325313566573 2.701152035325662 0 0 0
3763 1 -9.103120329962938 -5.643500240013536 2.288478589748748 -2 2 0
3825 1 -8.061339390117379 -5.587316025289615 2.4686878002908443 2 -1 0
2755 1 -7.483544413405071 -5.45576352487787 1.633156676954675 -2 -1 0
142 1 -8.486841920126857 -5.223262027635333 1.441876100204195 1 0 0
3348 1 -8.014778512353047 -4.459563330306977 2.287967579593162 2 -2 0
880 1 -6.856875574298499 -5.022520185459991 2.456302460068821 0 -1 0
3377 1 -5.957920355637891 -4.824342502160815 1.6816038499000956 0 3 0
3894 1 -5.242145256204937 -5.347079253820905 2.3723055869689484 1 2 0
2129 1 -4.513595186865958 -5.386607714662849 1.6017223860776193 -1 2 0
730 1 -4.864965253175399 -4.314412205531328 1.621568118098613 -2 1 0
338 1 -3.958108731721572 -5.272236939123474 2.557224110537775 -1 0 0
4601 1 -3.843812084909536 -4.624323939216903 1.6381396473358785 -1 -1 0
4100 1 -2.865038160318779 -4.784401787522129 2.366845547337133 1 2 0
4556 1 -2.146587148867127 -4.800046138698677 1.5376587969205635 -2 -1 0
844 1 -0.9183771721372215 -5.548571765871613 1.9695177569406188 2 -1 0
4980 1 -1.1830546840986902 -4.560544501370581 2.19575542936351 0 2 0
1425 1 -0.146708360939822 -4.774863406564074 2.160594452560501 1 -2 0
3933 1 0.9929234665552862 -5.482194082655429 2.2420238591135067 -2 -1 0
3882 1 1.135314516399119 -4.696048914166904 2.7904576695859635 0 0 0
2284 1 1.5285502495265864 -4.549565871973648 1.8101897154995834 -3 -2 0
3970 1 2.2191134647983763 -5.3767148885998415 2.252406988627118 2 0 0
787 1 2.36039678492634 -4.362269862607687 2.7303386390641706 0 2 0
1648 1 2.690246103406122 -4.52638938630195 1.583636314011018 0 -2 0
2044 1 3.2259014124004786 -5.204454576709191 2.4786742427046073 -5 1 0
4266 1 3.985238514897962 -4.736136525635737 1.6903769425088055 -7 -3 0
4364 1 4.577162088193265 -5.614773329094748 1.9020521156779382 0 0 0
2008 1 5.566587571976675 -4.684708269756579 2.5253780031301107 -1 1 0
1338 1 5.704079979368636 -5.546396195869115 1.9555204153666075 1 2 0
152 1 5.221224705839685 -4.695781274689555 1.523195268338778 -1 0 0
3612 1 4.414847339450821 -5.013523400787195 2.7630907466961188 2 0 0
4144 1 6.9991700767627725 -5.130106533079504 1.5805975521858615 1 1 0
2719 1 7.6396522946776395 -4.30012513285576 1.5244836866477003 -1 0 0
1668 1 8.289395741972083 -5.184250722579534 1.6983259855760764 1 1 0
2236 1 7.470161760096038 -4.970603108158986 2.474861217488769 0 4 0
1375 1 9.3822977143528 -5.356141539653977 1.5939345182457363 3 3 0
3904 1 8.954068069512772 -4.9076788900506205 2.7306672683691224 -4 2 0
476 1 -8.736148732907203 -3.277281466142316 1.5836848638553804 1 1 0
1815 1 -8.7330416657448 -3.614194071896389 2.519730252195964 -2 0 0
3425 1 -7.695140540504057 -3.544606931197349 1.9996514234564076 1 1 0
3744 1 -6.947423433660842 -3.9769677167045936 2.5981154756174436 -1 -2 0
118 1 -6.788899852574499 -4.151699051184394 1.562031098569619 1 5 0
344 1 -5.7989081473916935 -3.754829889598421 1.920745941283382 3 -1 0
802 1 -6.724448546488809 -3.0759195793064427 2.0537107724850383 -2 0 0
2416 1 -5.166830696048484 -2.996990653671358 1.649423925921613 -1 1 0
1972 1 -5.187738894046405 -3.4082335948100475 2.781228726153791 0 -1 0
1186 1 -4.234543664184796 -3.578709777124639 2.2346698066327493 -2 1 0
30 1 -3.2542968019568637 -3.87203183606745 2.1967982858224215 -2 -1 0
273 1 -3.996206585141242 -2.867375905730021 1.606203019090127 0 -1 0
398 1 -2.883131460335304 -3.1209143871527862 1.5799439625894813 4 -3 0
1662 1 -2.1910214511061543 -3.8848734814022716 2.0038847842922225 -2 2 0
3827 1 -2.340924114520739 -3.334032900366525 2.826996297316219 1 -3 0
3456 1 -1.3052011223890345 -3.026064836397351 1.5656202312139567 1 0 0
3363 1 -0.4688568864119941 -3.6654944256032724 2.0986787525664576 0 1 0
1855 1 -1.049955514405094 -2.8662659926940126 2.53390410307646 -1 1 0
3474 1 0.540867501630679 -4.079981654360513 1.8141254242629588 0 -1 0
2744 1 1.0675558493836865 -3.103945078872122 1.693705791933813 1 3 0
1687 1 2.0789795969098255 -3.7007205953572533 1.566613772179801 3 -2 0
1177 1 1.656241869808222 -3.566222960530232 2.5028629538986182 2 1 0
4888 1 2.68018715354742 -3.3392694406407357 2.848833532762925 4 2 0
1874 1 3.0249931610200615 -2.9931558926271427 1.5364136201183742 4 0 0
2923 1 3.394455876390986 -3.96829926373536 2.1528136756568252 2 3 0
2972 1 3.9903407655060885 -2.9953111558147216 2.5436563554718528 4 0 0
2784 1 4.8095828613267 -3.873388508464901 2.1956385362671402 -1 3 0
2936 1 4.979492103715997 -2.9320981281653458 1.903364689087423 1 0 0
3634 1 6.685224365873877 -4.261604508968409 2.2148071764474544 2 -2 0
2796 1 5.8386910384774025 -3.5649400362080597 1.7139363227703588 -2 -3 0
1790 1 6.923987282166581 -3.308307302913722 1.6637907846698112 -3 -1 0
2241 1 8.022602060500368 -3.2286888450293088 1.6752202603559854 -3 5 0
402 1 7.282641314352939 -3.3813559226277725 2.8276757064149862 2 -3 0
3914 1 8.191506711901175 -4.124601185906268 2.426321910184254 -3 -7 0
2287 1 8.90194127915005 -3.5002703025079014 2.1156762484393035 -1 0 0
348 1 -8.662629974316902 -2.240387925469614 2.0257379838241736 1 0 0
1254 1 -9.501905465950927 -2.6212357436275795 2.5394954733748722 2 4 0
1900 1 -7.640354290437633 -2.461100231985295 1.7791751854525801 1 -1 0
77 1 -7.648386584629585 -1.7089610473132288 2.7461143205069627 3 2 0
3488 1 -6.018427323486013 -2.3692042297945197 1.582655755395682 1 -3 0
2368 1 -5.874123979446029 -2.573946268782797 2.5947060360403755 1 0 0
4781 1 -6.69111356677792 -1.7713978938282358 2.1242757301911563 2 0 0
804 1 -4.768085581511242 -2.4668944233513566 2.5187526880552205 2 -4 0
2529 1 -5.242386506427534 -1.6140214060695381 2.1107758548099524 -1 1 0
1981 1 -2.946641293122173 -1.6230431641859322 1.878739323353856 -1 -4 0
3764 1 -4.198941188188416 -1.744495483072298 1.9620638330257636 0 1 0
2445 1 -3.412638580240611 -2.247403438524118 2.6804790169614217 -3 0 0
2488 1 -2.271546089783259 -2.5719956781702127 2.1576758119085366 1 -6 0
723 1 -1.289880724819252 -1.975870654501903 2.0544833690821696 1 2 0
141 1 -0.30469987623305417 -2.4284171415261264 1.7957906321634245 0 1 0
3807 1 0.27246719049659746 -1.7645924570247598 2.707254531940895 -1 -1 0
2209 1 1.1644932684560494 -1.8650689722562164 2.1052668264038803 0 -1 0
1050 1 1.0158030265112983 -2.6962386062702173 2.8505039200524998 0 -1 0
3944 1 2.093509171840495 -2.5846011895914494 1.9407522702193196 0 0 0
4263 1 4.01826795065898 -2.272092240188036 1.5542624376664576 1 0 0
2349 1 3.2562458896593176 -2.1268917999856063 2.271188116752135 -2 -1 0
4796 1 4.159729128691979 -1.5202201575580194 2.423762136788158 1 -5 0
4070 1 4.806160971353236 -1.5661914512060893 1.4487399874186826 -1 2 0
1296 1 5.217513476260195 -1.7660923131172734 2.459303224029039 -2 2 0
3665 1 5.7477073220119665 -2.2807661855648367 1.5715184859351163 1 0 0
3854 1 6.99309562233283 -1.8577685679470735 1.5420540949211805 0 0 0
2383 1 6.417929225983522 -2.5550708190714415 2.3603308870472457 1 -2 0
4855 1 6.236792225891029 -1.4716244366237274 2.4522644734375105 0 -1 0
4171 1 7.450295626236958 -2.2722452030417384 2.394392989400352 -1 1 0
3532 1 8.568342465522218 -2.0339589286901543 1.9431968031662608 -1 1 0
3327 1 9.82779194962662 -2.747983141947789 1.6223926652399048 0 4 0
1191 1 9.764609181674656 -1.7279824224228983 1.8398521996943658 -1 0 0
2025 1 -9.812398005822976 -0.5655356766354215 1.5881193550186894 1 0 0
672 1 -9.789162616994382 -1.1502950404375454 2.819079046798414 -1 0 0
1802 1 -8.137638297290719 -0.785159413026684 2.721836570643146 0 3 0
21 1 -8.38278088835024 -1.088290312762901 1.8232757857399633 -4 4 0
4094 1 -7.366191167227721 -0.932683137331633 2.0151735707448393 3 3 0
1657 1 -5.726139093785017 -0.6915581148383951 2.274981337492854 0 2 0
217 1 -6.523962992454863 -0.08688333094891776 2.3496239507644283 -1 1 0
4287 1 -5.146092116851035 -0.6828971281743976 1.4389081196812004 -1 -1 0
512 1 -4.440549125788786 -0.7931695523542686 2.471196925211333 2 -1 0
1095 1 -3.658198690469803 -0.4279229534672312 1.6250973292059414 -1 0 0
3387 1 -3.2785257710115796 -0.9280455176111372 2.7008134052726818 4 -3 0
4317 1 -2.6827967940821034 -0.2943660370030278 1.9804194096281322 -2 -1 0
1087 1 -2.0533451677572514 -1.1405485419134627 2.6292049809933045 -6 3 0
4314 1 -1.0802660551704433 -0.9599855599833073 2.154747271762363 2 0 0
2253 1 0.423722482093805 -0.0630191759471126 1.595197779357539 -1 1 0
4947 1 0.3450547549151376 -1.4039273449958605 1.6606205518474444 -1 3 0
693 1 0.9543863414352335 -0.8205920768291018 2.3111751077482463 -2 1 0
1103 1 1.6832995493479639 -0.30126139779386946 1.6401412244778806 -1 3 0
2662 1 1.8597565005521803 -0.31220914710551406 2.824123756753085 -6 0 0
4591 1 2.429403767882944 -1.1940347543655547 2.0819299207578275 -2 -1 0
4771 1 2.75056013602201 -0.2560277193341282 1.951358635128323 3 3 0
1148 1 3.41820560808145 -1.1437102147913547 1.5808302902207112 -2 0 0
1206 1 3.187769644839985 -0.6816324891996159 2.778453216408444 0 0 0
1873 1 4.171126914957114 -0.4994997639780471 1.5907358449804914 0 2 0
3798 1 4.73853739244436 -0.7343054209634812 2.5604896599204543 -2 0 0
925 1 5.594785936276826 -0.9310338201715653 1.65136982265532 7 4 0
489 1 5.868774085707221 -0.4635695888795851 2.66485605637823 -1 -2 0
3932 1 7.082866063755694 -0.5318617113501425 2.349218822173742 0 0 0
1618 1 7.850594327736511 -1.2687361063900124 2.2623986767440516 1 -1 0
2572 1 7.967659734030238 -0.0888424820139982 1.6113541606538433 -1 3 0
2521 1 -8.915552476218455 0.027043015305904212 2.0227051814067374 0 1 0
2450 1 -9.450472410972049 0.9190613965057175 1.766192548974601 -1 -2 0
762 1 -9.27758549051367 0.7971144477371723 2.7777828077107376 0 1 0
2359 1 -8.244300342862552 1.1317839857876397 2.3045607049667916 1 -1 0
495 1 -7.658219595732733 0.12481150480184734 1.9250950554226272 0 3 0
236 1 -5.788250118716107 0.9230060987054691 2.1885634368115374 -1 1 0
691 1 -6.781156303081866 0.9825556627102882 2.072122449779739 -1 -5 0
822 1 -4.9188583527711085 0.25898061280203766 1.9492628516473873 0 0 0
4129 1 -3.9027345596353413 0.14180280612302204 2.598632335771352 0 0 0
3092 1 -3.245533412636032 0.6645670293799117 1.7699691853623598 0 2 0
4208 1 -3.890646295086295 1.230788026088333 2.4633577349806224 1 2 0
1756 1 -2.63189645314962 0.8967586870512494 2.661741547375393 -1 1 0
1226 1 -1.2654842329398883 0.9411476034980415 2.1241694707107746 -1 -3 0
48 1 -0.9038978601839167 0.01309263540304634 2.5627217695891122 0 -2 0
652 1 -0.3217975832348283 0.7011688557521527 1.9843164535853686 -1 0 0
2607 1 1.1442733256180746 0.8532427771773706 1.9666191051405868 -6 -1 0
3810 1 0.28768250495616904 1.0214721417837993 2.8226265874122927 2 -2 0
3198 1 2.2629311499527374 0.9099668308138752 2.1202950098158175 -1 1 0
3289 1 3.2102394347150995 1.2110602862205115 1.6288692296193619 3 3 0
1133 1 4.207322997061735 0.6263518911493444 1.7229988807877497 0 1 0
472 1 2.9963564850633966 0.7206778820958177 2.764425267150227 -2 -1 0
4316 1 5.187180324595135 0.2079279671202339 1.778894474317464 -2 -8 0
1852 1 4.900094196303867 1.4039288040652977 1.5340900077237596 -1 3 0
4217 1 7.008094287184858 0.49553272245350105 1.637889464706249 1 0 0
4832 1 6.9316689710418045 0.4750329054417065 2.699617038517104 -4 -2 0
259 1 7.864872992345012 0.8197160451160079 2.2254813923055714 6 5 0
1123 1 8.84223719258721 0.10512566170528702 2.548048607298408 0 0 0
1739 1 8.863257893277812 0.8013682770106046 1.5880893702359404 5 8 0
3326 1 9.699415484089126 0.5665887155395799 2.2051973646584995 -2 2 0
863 1 -9.530508327210322 2.832189238422742 1.6175038482365827 1 -2 0
2285 1 -9.213048502237053 1.9480025700954255 2.812985692959568 0 -2 0
1978 1 -8.021267138691032 2.206066183690297 2.8456005291329816 2 0 0
2392 1 -7.787984510047433 2.827247238058805 1.8669223748388295 1 -3 0
2528 1 -7.08255980766712 2.2021349677974644 2.104588079120965 0 -1 0
4738 1 -6.355975611749047 1.8460132679010268 1.5492934539490977 2 0 0
3447 1 -4.889637386814035 1.478597912873727 1.57680969572246 -1 -2 0
3033 1 -5.422071880787759 1.982932091306052 2.4310450314365655 0 1 0
3829 1 -5.174987108246861 2.7950856708737297 1.742488010301038 -1 1 0
2375 1 -4.149638464769935 2.4966621004583676 2.1409585901160613 0 -2 0
1597 1 -1.686373724990172 2.1238428261889446 2.463889641176735 1 1 0
3577 1 -1.2706057062652392 2.4158516815946776 1.6769410430697065 1 -4 0
1705 1 -0.4172590534217997 1.935380824111878 2.197868439165524 1 1 0
653 1 1.2956798507830634 2.699389772198327 2.513728877933394 -3 -3 0
1970 1 1.8822199279083003 1.5730088707722365 1.5524229940573593 0 7 0
3542 1 1.5138558971807439 1.5912008698571112 2.534528394295897 -2 -2 0
4696 1 2.7023264429743663 1.6809971784844489 2.8454051162895135 0 -1 0
2137 1 2.369006227072016 2.614138251110251 2.551097732962773 0 1 0
824 1 2.8336405915566765 2.2262823390371516 1.7366442565653823 0 -3 0
2364 1 3.858623679490332 1.510783953669348 2.490532397068294 1 1 0
2189 1 3.443345610662457 2.5545965094934338 2.8081911684682535 -2 1 0
2642 1 4.51791294199578 2.59960025716905 2.186642316375187 2 -2 0
2206 1 5.611253431643258 2.6552459367580927 2.6809288719253703 -2 3 0
4104 1 6.844497251347503 1.537988331340736 1.6925190745065029 7 9 0
3322 1 6.474883150175621 1.8130153503718767 2.6453966169238936 2 -3 0
1616 1 6.842074651024415 2.597422667178873 1.7917368418149136 0 3 0
417 1 7.571560864972235 2.1922350415058696 2.466814247730883 3 0 0
2447 1 9.689332442481593 1.4306206067646452 1.6099950262508576 -1 3 0
441 1 8.689630309681464 1.8341343399178738 2.006461996448942 0 -1 0
1436 1 9.729418895926814 2.235836849351138 2.37852336604232 0 1 0
2618 1 9.295815052562531 2.627812119510141 1.5447870743044643 -3 2 0
2203 1 -8.86298942338685 4.080337466874106 2.6761808212860827 0 0 0
4590 1 -9.080207164093494 3.0517414225705255 2.7323432972161736 1 1 0
1620 1 -9.857303024920641 3.8558798262930325 2.4705351319630413 -2 0 0
1686 1 -7.9988763153039555 3.958121521702361 1.9711318011590842 -2 -1 0
1229 1 -6.294772662470971 2.9016765314521322 1.609361849763762 3 1 0
1088 1 -6.851924152007841 3.412992380739153 2.3463682119306513 -1 1 0
521 1 -5.142728955494759 3.146655212728199 2.719769237908093 -2 -1 0
4764 1 -5.451603819287692 3.983205277601438 1.8272791968955693 -1 0 0
1518 1 -4.367483591604238 3.5668962796423274 1.7900275093192064 -1 0 0
3804 1 -4.752933457825423 4.203925837254471 2.6492259541071 -3 -5 0
4047 1 -3.3408132621225306 3.2135400539211814 2.7538603675796782 2 0 0
1565 1 -3.5154766264257438 4.2142762902893836 2.2418712689258595 -6 5 0
1122 1 -3.1880688588589856 3.457402370924052 1.6872714454026454 -1 0 0
3855 1 -2.3301648681018423 3.3925946543565577 2.52989896950389 0 -2 0
4541 1 -1.7098268617155723 3.5526381742980973 1.6182419977117704 4 2 0
1406 1 -0.3325078524635922 3.8439985666192356 1.60079656075495 0 0 0
456 1 -1.0219502752736223 3.3081168832821564 2.4592417189162346 1 0 0
2122 1 0.81493535431983 3.5635918984060684 2.616573924049183 1 0 0
646 1 0.4951103517431158 3.0339985048240465 1.7340228869457193 0 0 0
1718 1 1.7872733213837786 2.8708905621214944 1.6366724158854438 4 -4 0
3689 1 1.8321482855912044 3.6364980377207914 2.465246346580145 0 -1 0
3487 1 4.2135243297990685 3.6959711661816494 1.9448150135444504 0 2 0
2640 1 3.147740691586335 4.283891630438542 2.119756368693886 0 -1 0
2513 1 5.2517770938815564 3.659579006095425 2.618505867144226 0 0 0
4945 1 5.885838460029276 3.3313385794624955 1.7625472954474735 -4 1 0
2576 1 7.070075201220388 4.171933331082014 1.463215991435894 -1 -2 0
2687 1 6.297212393582179 4.114851627359889 2.625930188781816 -3 0 0
3915 1 8.233433128530274 4.127099655351912 2.3632552031677965 2 0 0
424 1 7.2750658918483255 3.3582443654772627 2.33262400511262 -2 -2 0
192 1 8.496931501169595 2.8833434012917643 2.1942243530706964 -3 -2 0
2934 1 9.30361021441296 3.7196978362983697 1.9858615745329218 -4 1 0
3436 1 -9.878778525456573 4.871850183442347 2.080622384224106 1 1 0
2694 1 -9.020384567718228 5.267733078351383 2.847975568761778 0 2 0
1822 1 -7.516291134298079 5.5448838118074075 1.8518377806868265 1 1 0
4955 1 -6.706380656354729 4.427992518208254 1.7468892547147574 -1 1 0
4528 1 -6.637707221421137 5.168435959227626 2.433696610231522 1 1 0
1622 1 -5.4927781299088405 5.094940388446689 2.3558397139608984 -2 0 0
1522 1 -4.394834677424497 4.875437963242714 1.7946480767551687 -2 -3 0
809 1 -3.248149222001634 5.388742529155327 1.7337101932402699 -2 -3 0
50 1 -2.502752069864955 4.472184165807971 2.2295084875566316 3 0 0
2374 1 -2.0172638156627922 5.549359807467378 1.8094684271939843 1 0 0
172 1 -1.3844336952032448 4.522646532567353 1.9829065496504448 2 0 0
1700 1 -0.1871027879292112 5.6154226358246895 1.7322362068668176 0 2 0
2092 1 -0.9749933515090365 5.30642811824149 2.5067868137757587 2 -2 0
1908 1 0.1713736057323325 4.51105847217681 2.2643062808124936 -2 0 0
3654 1 1.0683228960715832 4.511969165487987 1.8543545045653385 0 2 0
645 1 1.1940981646426088 5.693007065833179 1.70333372722409 1 1 0
3426 1 2.0632985389542826 4.951564670292251 2.1996360933910775 3 1 0
3987 1 3.2508830475798445 5.541210412195297 2.110360833689945 -1 -2 0
2898 1 4.106394240366425 4.769748414655097 1.4956194417734634 1 -1 0
4038 1 5.110632073154815 4.8477925226779 2.2115701212483367 1 -2 0
920 1 4.304354675883214 4.43110931295517 2.651199698938755 -3 0 0
1433 1 6.360484467711884 5.014122988529463 1.5483651613564016 -1 -1 0
808 1 6.598147102779471 5.595025861283996 2.4327399308556075 1 0 0
4618 1 7.356196685214166 4.97176375971405 2.0661497686186876 -1 0 0
3117 1 8.168219020436947 5.426297816927623 1.6062550376066258 -3 2 0
3211 1 9.035416764198274 4.9281169036292365 1.9943016467712216 2 1 0
4338 1 9.194050005220086 5.478295214822855 2.843711664163015 0 -3 0
2696 1 -9.694817732527575 6.126973405489742 2.0131065322792527 -4 3 0
2348 1 -8.540384883435804 6.265305784607482 2.8277590488289426 0 1 0
1914 1 -7.392305084016965 6.608143740715753 2.5297070215565247 3 1 0
2559 1 -6.759489129183128 6.246057234873003 1.6467487701622956 -2 1 0
4988 1 -6.002370226770908 5.996064389034746 2.6578335461451266 1 0 0
4630 1 -5.477224211970398 7.020322302233337 2.4460105233749987 -1 3 0
4167 1 -4.94437819256363 6.387664394851836 1.7104112593917995 3 2 0
1330 1 -4.4217666693995605 7.07862348799569 2.42329405128655 0 0 0
978 1 -4.34213843704501 5.828885944214084 2.37120455072358 -1 1 0
2149 1 -3.6605225521711993 6.446913820148237 1.911306651446078 -2 0 0
709 1 -2.750681137803261 6.047168103974777 2.4349928693106957 0 -3 0
746 1 -2.4371632258382454 6.54461389591963 1.4936784007256778 -2 -1 0
1279 1 -2.274075852887558 7.104936454998001 2.526904349611329 0 1 0
1046 1 -1.6683009666540722 6.199341058968054 2.6604062404223354 -2 -3 0
1214 1 -1.1981311832088797 6.982167830203428 1.9424538823603528 -1 0 0
2818 1 -0.5092590173686553 6.197090502891164 2.5496772481067436 0 0 0
3838 1 -0.13746113134197271 7.102548542766696 2.1050201361777443 0 2 0
3658 1 0.6050738172053561 6.521317412963297 1.7799357100319666 -2 1 0
936 1 0.5342570912370233 6.499618049270484 2.818916982599781 -3 -1 0
3059 1 2.317996629238153 6.372179728852494 1.9130765765958908 0 1 0
842 1 4.1121352259692 6.15646153689197 1.501763472111752 1 -3 0
231 1 3.629694334221394 6.717106070281393 2.476045398926947 -2 -2 0
748 1 4.92477684663972 5.938579062681131 2.1623925926345717 -3 -3 0
290 1 4.573517548449222 7.033089413569563 1.9070416286098846 0 -1 0
1055 1 5.712770437736485 6.445714383697374 2.754800225098144 1 -2 0
3725 1 6.13115171275406 6.46326423876012 1.5431633035284162 -1 0 0
1155 1 6.6833803726735175 6.755818677005079 2.3770795300042917 -2 -1 0
4480 1 7.62853628453424 6.173857220369336 2.3994993087496743 1 0 0
2325 1 9.016753929790738 6.1541928633563545 2.0000079473848777 0 -1 0
2533 1 -8.734965808629374 7.3910745402975175 2.162529233862939 -1 -3 0
2214 1 -9.562811615559765 8.176574871913651 2.423755262147858 -1 -2 0
4465 1 -7.720379675024225 8.436684798772543 1.963673154718286 1 1 0
647 1 -8.263606572505418 8.223955251719588 2.8379602618069697 1 3 0
2770 1 -5.938217939858429 7.332322889730986 1.4504055496110657 3 0 0
3250 1 -6.588974962140133 8.313402723142918 2.6772712371314205 -1 1 0
1732 1 -7.035143705259694 7.449056596606823 1.912689813623689 0 1 0
111 1 -6.669355009859415 8.384307337529322 1.6615661443768357 1 -3 0
260 1 -6.477133932110987 7.202416411930763 2.7433866345011344 -2 0 0
1753 1 -5.651438611838014 8.249169656478951 2.085428360329934 -1 -3 0
3437 1 -4.953761613728185 7.526616883193461 1.6454314655402964 4 2 0
3439 1 -4.618308173322778 8.027993518451302 2.4714693012232236 1 0 0
3183 1 -3.3803688081870944 8.09338113317751 2.694568191893061 2 -2 0
3193 1 -3.1707809351578735 7.489959409320406 1.770436756877008 -3 4 0
4981 1 -3.72157287868699 8.489483646922057 1.7807558795398806 3 0 0
3515 1 -2.55483562163732 8.468000691647498 2.0734397901388824 1 -1 0
2861 1 -1.6421288652025303 7.998045196664587 2.425236115065814 0 0 0
2202 1 0.9193115625354258 7.429521761491118 2.148399950585785 -1 -2 0
1057 1 0.10926453759378821 8.040555533159823 2.7993436121544875 0 0 0
953 1 0.8292496856810601 8.35886440052301 1.7020426053847333 2 0 0
1126 1 1.0822327649631462 8.402597446988516 2.7071566743050637 -2 -3 0
1456 1 2.032530142976228 7.387310112527806 1.8724546046251704 0 2 0
3423 1 2.812164594700437 7.697921055520408 2.5068903319825915 1 -3 0
2406 1 3.569691689788243 7.4465794921396755 1.6344672986884796 1 1 0
687 1 3.4632264883808936 8.554093461673732 1.6413510894533674 -3 -1 0
1376 1 4.605975843269497 7.986694772448924 1.6718970282855186 -1 4 0
2294 1 4.846648788201463 7.700057464171597 2.830174582629226 1 -1 0
4948 1 6.328560253535795 8.056624053138005 1.610516975888618 -3 -2 0
4674 1 6.6651636336731155 7.687149422309784 2.640976908476312 0 -1 0
1482 1 7.400828690700359 7.646829901175976 1.7127390895100147 -4 1 0
4384 1 8.198413504856777 7.182302484791039 2.2649651981776087 -1 -3 0
1053 1 7.769099088904272 8.155569209420078 2.7758595487600832 0 -2 0
4966 1 9.10910566891 7.199104294681528 1.6944910958047668 -1 -1 0
3653 1 9.550733259769315 8.297808588319482 1.9280287144309296 0 -3 0
4004 1 8.637237902588177 8.059939730000163 2.250478698275266 -2 2 0
1992 1 -9.748123188073667 9.048351363880132 1.9427269125307185 0 -1 0
4363 1 -8.789143034079169 8.649513952945867 1.5923271026832382 1 -2 0
3526 1 -8.721147576749937 9.207022500060503 2.8027087064926284 1 -5 0