LAMMPS data file via write_data, version 22 Jul 2025, timestep = 2050000, units = lj

4000 atoms
1 atom types

-10 10 xlo xhi
-10 10 ylo yhi
0 60 zlo zhi

Masses

1 1

Pair Coeffs # lj/cut

1 1 1

Atoms # atomic

255 1 3.456875764966241 3.7507758017435897 1.3541868291125108 -3 1 0
648 1 6.254714430955211 7.354855516863259 1.41092078729892 1 -6 0
1852 1 -9.714621555138908 -9.82698771110646 1.675352643554826 -2 0 0
3993 1 -9.318324954375727 -8.747156743729972 1.7459546602266538 3 2 0
298 1 -9.263411810538503 -9.138344553528523 2.8198152192386146 -1 0 0
56 1 -7.753115283536242 -9.663429217242173 1.551825425251965 1 -1 0
1930 1 -7.38350674364942 -8.618975179090818 1.7099188012529662 -2 1 0
519 1 -7.5698813982553395 -9.963200404229413 2.6164186528323343 0 -1 0
2862 1 -8.247048118638375 -8.994050139236524 2.308909774074302 3 -2 0
3777 1 -6.70616070746992 -9.5600467208796 2.828406892932521 -1 0 0
749 1 -4.361494722155667 -9.941067037548937 1.489147896946514 1 6 0
145 1 -5.266531680114702 -9.604803209679085 2.8309421009580324 -1 2 0
1759 1 -3.446551646493069 -9.74477730001353 2.414298662665991 0 1 0
2164 1 -3.2847646635116607 -8.585417167688226 2.235648652265102 1 -6 0
3998 1 -4.210243131876016 -8.916845857564 1.8498042094395213 -3 -2 0
3842 1 -2.5161424187525228 -9.277803559246209 2.476634931235887 -1 -2 0
2425 1 -1.625878002393248 -9.472449183283452 1.9536925563927297 3 1 0
1466 1 -2.447704341034311 -8.624515655347894 1.5988513431372735 -1 5 0
3970 1 -0.25052420296234285 -8.79740513312383 2.4406729172843336 2 0 0
1781 1 0.2174590884925029 -8.620523198289986 1.536241173172953 -2 1 0
321 1 0.8756945144713966 -8.733536840193588 2.399708197938191 -4 -3 0
2211 1 1.8672487968742888 -9.03487996080986 2.0008416881820197 12 1 0
2675 1 2.4219545008076375 -9.938991338004866 1.7651985925581894 1 -1 0
1980 1 1.9777090307619924 -9.781817120964323 2.7648561372991733 -1 1 0
328 1 2.886500986795778 -9.145083776023816 2.6710080347462544 1 2 0
2160 1 3.6812695711290626 -8.851107957337934 1.6878826795413868 1 2 0
916 1 4.588397732229809 -9.482479398742765 1.4737140363976187 3 2 0
678 1 4.7616261362367815 -8.938098475947058 2.3855712325136693 3 -1 0
3483 1 5.564448027376197 -9.217402526235164 1.6303099646534747 1 -1 0
1174 1 4.877864391549512 -9.96813102785283 2.458171117783105 -1 0 0
1346 1 5.93367535579843 -9.740030486028555 2.5586145144621115 0 1 0
1473 1 8.532109898051168 -9.855628272480732 1.7140488845463444 1 7 0
1821 1 7.495330098536596 -9.249611925821533 1.8572146641507001 3 -2 0
49 1 8.511503798392376 -8.81167998531082 2.0826834589678986 4 0 0
2782 1 8.291353833949703 -9.710153802544314 2.766044753438294 3 0 0
3962 1 9.577152661267318 -9.023034667440847 1.6529252791358056 14 -7 0
446 1 9.993163103811312 -9.911101186282773 2.7438960948444713 -1 3 0
1570 1 9.75562468245662 -8.64840349483708 2.6828248472632286 0 0 0
3061 1 -9.964502429754573 -7.768018807127631 2.039325872519312 0 1 0
3686 1 -8.925688353539737 -8.023662415253561 2.5857386358174916 3 0 0
1431 1 -8.462009291235027 -8.045419552942588 1.5491155238779712 0 6 0
478 1 -7.804894030927665 -8.12998394537094 2.6225650850976305 3 2 0
1524 1 -7.934574883303772 -7.18196025218862 1.5292025563608809 -3 -5 0
1947 1 -7.225282677036026 -7.174485272060828 2.6126125159722924 -5 1 0
499 1 -6.831201251694596 -8.375361155235396 2.5614858078260734 1 3 0
1374 1 -6.666769596241112 -7.564172701312142 1.6716786226516158 -4 1 0
1943 1 -5.728494819508322 -8.53189491452464 2.714243576009224 2 0 0
3431 1 -4.87256274788592 -7.8175287463031164 2.1740010226461473 -2 1 0
565 1 -3.870899678839962 -7.673299931565826 1.855554154816376 0 1 0
3344 1 -2.7349343330732436 -7.508528156973925 1.4601090294939647 5 2 0
1294 1 -1.9150332054272632 -8.239253288629323 2.8014246377022465 -3 1 0
2758 1 -1.6646256753174082 -7.4056008152503 2.3141503267292096 3 2 0
3630 1 -1.3440252341236023 -8.300636274250483 1.7494456730084935 0 2 0
3438 1 0.43092042774275346 -7.549484953685054 1.9460943340034447 2 1 0
282 1 2.665897926200307 -8.197615927295784 1.5511505994679373 -1 -2 0
1876 1 1.6852821783195575 -8.004348782472707 1.8304076397420632 3 1 0
2463 1 3.3262196965520228 -7.227543848657907 2.6695724601682596 0 0 0
1602 1 3.572665308068509 -8.264265052320845 2.519771409454315 -2 -1 0
1850 1 5.383573488427054 -8.112373848510963 1.7123051821700268 3 -2 0
3868 1 4.4166320907609125 -7.754233519229187 2.0663131435639683 1 -1 0
3209 1 5.199194679261799 -7.836424769570434 2.7619700707247907 -1 -2 0
1380 1 6.49087580690861 -7.77609232421688 1.5401860658905093 1 -1 0
2711 1 6.1745155433374865 -8.483001492311264 2.4805718400031425 2 -1 0
1307 1 6.115256929637894 -7.221220099989496 2.4307417682861736 1 1 0
248 1 7.1341223966886576 -7.154628860219095 2.5158166607444485 0 -3 0
3323 1 7.544586234294933 -7.154553419015564 1.5288897652940558 2 9 0
1606 1 7.480063453257452 -8.249944169490869 2.0261442876700078 0 1 0
1684 1 8.195831831593638 -7.436727130699405 2.408199281439198 0 0 0
2577 1 9.091955289642344 -8.080794911097598 1.6984605664440593 -2 1 0
3233 1 -9.003506954150645 -7.075797432798259 1.8035792517800044 0 1 0
3017 1 -9.510533502543247 -6.359296385829623 2.4511672113416174 1 -1 0
3506 1 -8.176297550494409 -6.150982549247209 1.6500461153629282 3 1 0
751 1 -7.112504431441086 -6.353066313754374 1.6774464848394606 -3 1 0
1249 1 -6.2110909536487675 -6.379375130892299 2.2335540817903783 -3 -2 0
2321 1 -5.619470277636677 -7.064300706722551 2.7871954848451317 1 -1 0
1645 1 -4.768365951185356 -6.712955993199015 2.0932785045277784 -3 -2 0
706 1 -3.2598882580813524 -6.277420941722159 2.0404682284731464 0 1 0
2640 1 -4.155746526694511 -5.839811552422881 2.47953965113186 1 -1 0
2744 1 -2.2872503103856547 -6.177784791338185 1.831280801788538 -2 -3 0
142 1 -0.9050073644245072 -6.114110277467847 2.090697083449744 0 -2 0
2867 1 -0.49916943944843584 -7.048365874217638 2.335128444719311 -1 2 0
2888 1 1.374755476468081 -7.073392984748553 2.2430151612902858 1 -3 0
701 1 0.4901575842897638 -6.59948096314212 1.4606747251416783 3 1 0
1152 1 0.7793132243617333 -6.013198590132939 2.448956856742319 0 -1 0
3959 1 1.6580187587153672 -6.185705772610704 1.4593635783765213 2 0 0
384 1 2.3470665756218816 -6.357989551504687 2.5535919813348396 3 0 0
317 1 3.385680238278604 -6.235800955026462 2.180952755898088 -1 1 0
3390 1 2.873355237313305 -5.715787797171266 1.4327719184602403 3 -3 0
2533 1 4.391041258341587 -6.632138228313062 1.8715672808717954 5 -2 0
1223 1 5.4859459210853885 -6.959203392371882 1.645485823070129 -3 4 0
722 1 6.706254358341807 -6.481721060644214 1.7917171089595247 -4 -3 0
1434 1 5.758663415093639 -6.1357445465394225 2.155709821970052 -2 1 0
2358 1 7.792080287963218 -6.366955723166661 2.495546884472657 0 -1 0
2387 1 9.361915572084499 -7.003048425650684 2.7324933460191767 4 -1 0
2871 1 9.849716443378421 -5.987006017940216 1.6365528423902211 0 2 0
2420 1 9.141052379695061 -7.029847556225938 1.7176046868345956 6 -1 0
2044 1 9.182306662268083 -5.948909117574176 2.5387085462863337 2 4 0
1562 1 8.640796274931166 -5.869205483480614 1.6343505581483364 1 -2 0
2820 1 -9.16577933970907 -5.544338761036677 1.8108541713509656 0 1 0
3621 1 -9.447879544877699 -4.491619143946817 1.9340412140914125 -1 1 0
1895 1 -9.932955837526295 -5.33605539993697 2.5082930783059547 -5 1 0
2597 1 -8.349086914659933 -4.876873226975529 2.0106230913498453 -3 -1 0
1272 1 -7.436622189839511 -5.508612637718132 2.139737118874819 -2 5 0
1883 1 -5.834026243901889 -4.943788450672409 1.5580723986647036 -2 1 0
765 1 -6.3680624178200524 -5.250078005530531 2.607685810295261 3 0 0
2645 1 -6.749470880248668 -4.568167757793027 1.7909588913234225 1 2 0
2005 1 -5.321137495935523 -5.578527295586645 2.2640005422351948 0 1 0
2221 1 -4.466983738390068 -4.757904954805916 2.819655614427316 3 1 0
3317 1 -3.9472949848641417 -4.994820944276598 1.8704632784553648 2 -5 0
2786 1 -3.14819711314493 -5.037985724622816 2.5302780699892944 3 0 0
850 1 -2.6663696313144154 -4.412209369983855 1.6998348312850229 0 -2 0
372 1 -2.092179759518327 -4.842301709502039 2.490187989429154 1 5 0
527 1 -0.0816074092616107 -5.417214933010812 2.023943063786164 -1 -1 0
2289 1 -1.1050128149874556 -4.743116968533083 1.857321381665152 -2 -3 0
728 1 0.5902696091940751 -4.3502838252774145 1.4548042357269164 -2 0 0
839 1 0.9737881071375085 -4.4828371351847345 2.4843746869574805 -4 -2 0
712 1 1.972569720280805 -5.071442780937662 1.466655719778402 -4 2 0
3580 1 2.256556340288963 -4.302855019339543 2.2251772056407995 2 -2 0
2078 1 1.6955867640668556 -5.28461300355909 2.6741315315102843 0 2 0
869 1 3.913921424391064 -5.417872918444747 1.899103316050108 3 0 0
3526 1 2.8633683022740737 -5.424213244864997 2.4503846095121573 2 1 0
2269 1 3.3673660151094955 -4.407907343868767 2.2442695399475987 0 -3 0
3207 1 4.816190220726046 -5.588475019653853 2.5369247167112436 -3 1 0
3990 1 4.935296554717484 -5.156018820877367 1.6233641706129487 -6 4 0
310 1 4.502868389776375 -4.48028694287683 2.451148297178595 2 -3 0
3273 1 6.934763266900592 -5.015098437999665 2.5923036453395474 3 5 0
1337 1 7.770477504935287 -5.2033894712288555 1.6700787873872103 0 2 0
3969 1 8.49120563544102 -4.308798507614158 1.6566422395328122 1 1 0
1805 1 9.46498136445339 -4.950675943043246 1.6119187167040687 -1 0 0
1450 1 -9.852638041976162 -3.40062629975922 1.8551219572518445 -1 -3 0
3540 1 -8.960356769265639 -3.8640537640990735 2.689411789941746 -1 -3 0
577 1 -8.82437522334364 -3.662431575815456 1.436447849488985 2 4 0
721 1 -9.48826429729328 -2.9231963473374734 2.786825352178319 -3 -4 0
2780 1 -7.687680788761633 -3.5227867864518294 1.7492596010415706 -2 3 0
1025 1 -5.754805021022185 -4.2115313117787 2.6916333928744565 1 5 0
1267 1 -5.840482507345657 -3.5111444537938366 1.7568388588733796 -2 -1 0
345 1 -4.7753615871226 -4.219197149917487 1.9544932663653962 0 -2 0
2798 1 -3.8120659274288986 -3.484348814139032 1.9620049111317874 -1 4 0
1928 1 -2.7019639348674414 -3.8701921495272256 2.6017131344263142 2 -3 0
2880 1 -1.4364291620997933 -3.7076894736924286 2.2461284880125896 2 2 0
2874 1 -0.31178476588313936 -3.313737793831552 1.7851185521555173 0 -2 0
2724 1 -0.05582586703361734 -4.23266405579536 2.5997633947861227 1 1 0
2735 1 -0.6792953478257511 -3.1260849802537782 2.7861619688538717 -4 0 0
1139 1 0.738230986639138 -3.0850480717204296 2.479230209317698 1 -1 0
3071 1 2.2016374928382363 -2.9490061904267844 1.7508573309471205 0 1 0
451 1 1.5955701148369619 -3.660247057758055 2.713333421269595 -3 -1 0
2239 1 2.950171389220475 -3.4145279822507573 2.5232057987459307 2 -1 0
3031 1 3.8579285267587364 -3.122124483291969 2.020789654142896 -5 -1 0
1632 1 4.488132039648344 -3.8732723229993176 1.5744845193700632 0 -4 0
1969 1 4.791014197473924 -3.242739358846807 2.626411991117595 2 -2 0
932 1 5.461133571435265 -3.3579337599569117 1.8915869229795446 3 1 0
2356 1 6.280930480398838 -4.147849055985328 1.866366291449197 -2 0 0
3465 1 7.4276871306055305 -3.6514111940523515 1.6777250772840604 0 2 0
3392 1 8.260467169769383 -3.080388697130759 1.5188061673588682 3 -1 0
814 1 7.529183291949987 -2.9759422708638663 2.513137639564891 2 1 0
912 1 9.674244382966132 -4.254888012571602 2.538251293935095 3 3 0
1176 1 9.093660269931894 -3.341467339881845 2.35250215994827 -1 2 0
81 1 -8.629522931116737 -2.802995478599082 2.158697623849606 2 -6 0
2866 1 -9.048955646435758 -2.1062646315769737 1.4398191801042195 4 -3 0
883 1 -9.879569780980173 -1.5924772575117527 1.8818036750587475 0 -3 0
1614 1 -7.75668492530945 -2.1426122480435823 1.6760442193398635 0 0 0
400 1 -7.608371687309953 -1.7880913050974718 2.742194949871168 0 -2 0
962 1 -6.861596908294727 -2.7081216842983578 1.878714536478496 1 -1 0
1745 1 -6.350925827504707 -1.6140455891655159 1.7463543763859821 1 1 0
1058 1 -6.239386769834152 -2.089632042114134 2.7827482087410544 2 2 0
2817 1 -5.015994662354525 -2.739917609029523 1.8444152760365529 0 0 0
2844 1 -3.194197989883774 -2.500246221141382 1.6919277400919028 2 -3 0
1662 1 -3.174992837262034 -2.8165440892104985 2.8384009796585548 -2 -4 0
1690 1 -2.031919676368954 -2.654953068768668 1.7841805524275742 2 1 0
163 1 -2.5415705699027638 -1.5972134959448194 2.334538008834189 4 2 0
3243 1 -1.4952782432393728 -1.447528495730042 1.5228067056682644 2 -2 0
2099 1 -1.1066573704125793 -2.135174752749505 2.2951628674072584 -5 1 0
1301 1 0.11145974945712986 -2.19439567605977 2.04546459651778 0 2 0
3563 1 1.1819596842640943 -2.202609357756786 1.5617388013887332 0 5 0
457 1 2.2316304462278875 -1.8557927716053328 1.517139791301067 -1 -1 0
3753 1 1.9617403993758293 -2.5121916082436306 2.678629270200772 0 0 0
984 1 3.1423363591870497 -2.2598503326517774 2.047356602425279 -1 0 0
702 1 4.801015889648947 -2.6148080708823835 1.7269012449831764 2 -1 0
2658 1 4.665634624775757 -2.0043551922308787 2.551993042041459 -5 6 0
772 1 6.730417750194446 -2.7332574546636876 1.6523631364250955 -3 3 0
3411 1 6.558978381338842 -1.8300981027852603 2.5006081420037183 -1 1 0
3541 1 5.801401519877488 -2.58363071336876 2.565102496487699 -6 2 0
2574 1 7.707141887272295 -2.0909876001350822 1.7668699721302101 0 -1 0
3673 1 8.543857159617316 -2.3993407783661973 2.7146637361789354 -1 -1 0
3039 1 9.600043380828874 -1.804613705507028 2.775941868712209 3 -1 0
3216 1 -8.870096789801186 -1.1601232625614115 2.09740243645294 4 -1 0
1950 1 -8.98777150846393 -0.028253003346986102 2.5699568917995013 1 2 0
1325 1 -9.900057933073969 -0.7791384515081036 2.5933885955886025 1 0 0
1753 1 -9.595371676245566 -0.29838424941098957 1.643518283528029 -3 4 0
1269 1 -7.823077010002474 -1.0153213990573668 2.029201558356313 1 5 0
2815 1 -8.519710447110855 -0.2178819798789072 1.4683267476311723 2 3 0
229 1 -6.818338470260474 -0.6631830466865811 1.9379650547507938 4 -1 0
1115 1 -5.9794214470146 -0.8778055729554649 2.8240228108901158 1 1 0
3709 1 -4.5593441219491755 -0.9697310492293725 1.623163121508523 -2 -1 0
2364 1 -5.491733703665544 -0.49028075359525863 1.88597309020174 1 0 0
1207 1 -4.43135701744344 -0.009770928211815157 1.8429103763248005 -3 2 0
654 1 -3.3786040024307997 -0.17263672846456568 1.6801468891041997 -3 0 0
676 1 -1.7358839098519467 -0.7003557980450773 2.2371454448268002 0 1 0
399 1 -0.4622155666358781 -1.0926589806881415 1.6847963561458525 1 -2 0
3421 1 0.5802946744281516 -0.9008818206059852 1.6467256929196985 5 0 0
181 1 0.21573951839998592 -0.7154280171469085 2.7713212010594295 -3 1 0
2188 1 1.118762918769964 -1.1256039970654244 2.4723937052025198 -1 1 0
1061 1 1.7614510607050857 -0.28561506765705386 1.7456492321506154 -2 -1 0
1132 1 2.4573776079682292 -0.9959586521958504 2.076281401968574 2 -1 0
2317 1 3.539970607728326 -1.321847182371073 2.4818394703612725 -6 2 0
2137 1 4.790584163879174 -0.4061866392312465 2.398482258403321 2 -1 0
1345 1 5.468225666856339 -1.3832244493987265 1.4948483877627619 5 4 0
1722 1 6.009854116231323 -0.2660228829874304 2.17190226911342 -4 3 0
430 1 8.294706344983304 -1.3233980180480562 2.5604574663878554 -2 -1 0
2042 1 7.409982568520082 -0.2776605343132655 2.1904829544541657 -6 2 0
3255 1 8.334495717603092 -0.3078316834720273 1.7075264088454747 -2 3 0
2731 1 8.887400753908217 -1.2694879539331283 1.7267379157561598 -3 -1 0
221 1 9.057730737416396 -0.5803607523652381 2.552942704908238 4 -3 0
1540 1 -9.394045805438 0.8339385174461054 1.4374272074150358 1 1 0
2930 1 -9.97410638343388 0.4060202120836876 2.690710179591185 1 -1 0
2708 1 -9.020086390829798 1.261050949447477 2.324313175447173 2 -2 0
1084 1 -8.165603891923302 0.6409581784264423 2.1835792808882584 1 2 0
2345 1 -6.909575655887604 0.6832711935152136 2.288088744603226 -1 -1 0
18 1 -6.036754620158269 0.7112048861112851 1.579876852635688 5 2 0
1538 1 -6.034637838653821 1.3791894418011144 2.4247680856325706 0 1 0
881 1 -5.171046016849963 0.4797008036572566 2.3627063957657937 1 3 0
3042 1 -3.854794198012087 1.3955567408031804 1.7422362426094644 1 2 0
1885 1 -3.3966231126941793 1.0281743829948746 2.6935430715340316 1 0 0
1667 1 -1.5700659336937564 0.3400326040377966 2.6312444449689285 0 6 0
946 1 -2.547248306285756 0.03715436822504345 2.1043575649962687 -4 -3 0
1120 1 -2.376713651589147 1.1064269980539296 2.1298926859750837 -4 -1 0
3779 1 -0.7731377749056353 0.4665908948567819 1.912050493111325 -1 0 0
2361 1 -0.07964656989981826 1.3912567932839601 2.4948946211133496 -4 1 0
2603 1 0.24883158702779387 0.4800680218136918 2.0135124034973924 -1 0 0
1702 1 1.0061826885238512 1.2907336361063162 2.7348213891303605 -1 -5 0
2455 1 1.6374211924176054 0.9577850639045921 1.8071182321354016 3 -1 0
974 1 2.8479408724794593 0.010154539772970443 1.9984284220656254 0 -1 0
2638 1 2.693431609065701 1.3047617550098876 1.70948619338654 -2 -2 0
1559 1 1.9892865306760863 0.1525811029854752 2.6213696382609895 2 1 0
3059 1 2.185461307243269 1.1827609180406853 2.753316884031913 0 -2 0
2375 1 3.8236855881477196 0.1422341477892987 2.4049331307310693 -4 -2 0
1536 1 3.3627722565769975 0.9753548460456043 2.6358856849267935 2 1 0
958 1 4.5539852394029605 0.6300492919988148 1.4809049831128003 -4 1 0
2096 1 4.96807642686922 0.692102410490133 2.604186017142492 -2 -2 0
3373 1 5.869952931902439 1.073091687002933 2.0683060403980043 0 1 0
1937 1 8.201741480548174 0.322212907116179 2.619062934691113 -2 2 0
1258 1 7.44813178406261 0.9163523388424277 2.3096227167084535 3 -3 0
1523 1 9.346974933284507 0.5411272365221124 1.5734370893125107 1 2 0
925 1 9.692042383709927 1.4043436802673397 2.1485780458588857 0 2 0
3863 1 -8.913996326743185 2.591783316388866 2.1264157403577997 -1 1 0
3509 1 -7.762859275273056 1.4789527955279147 1.5884559550027373 -9 4 0
2465 1 -7.99877934529491 1.775035559249257 2.573695692235252 4 -1 0
3607 1 -7.932824459612695 2.6436776492063485 1.627357210686884 -2 -8 0
2913 1 -7.581827444747574 2.7875473438689222 2.7522866194034723 7 -2 0
3328 1 -5.88187759367219 2.29636451031055 1.670039788731922 -6 0 0
1982 1 -6.959675455731011 2.0792868195239067 2.308694815348625 0 1 0
1117 1 -4.465784881410184 1.4986068306902576 2.65839180319106 -1 -2 0
3736 1 -5.2907237138989425 1.493872189815345 1.7028084427288082 1 2 0
1548 1 -4.341687035271061 2.3737831814001837 1.7348450003824947 2 3 0
3264 1 -5.157408999026094 2.5441860673499157 2.476441536752657 -1 0 0
1457 1 -3.307137658130616 2.611634137462327 1.7576885454117344 -3 2 0
2347 1 -3.457066395540787 2.1340855358497692 2.6851486178817074 -1 -2 0
981 1 -2.1646024140011932 2.131933852334846 1.785321882122615 0 -2 0
668 1 -2.289519604857653 2.3435836618581645 2.7980344184609547 0 4 0
1747 1 -1.2568310373214924 1.5973961581732858 2.2563403624803486 -1 2 0
564 1 -0.519530145701085 1.4521452001331816 1.492501048710689 8 -4 0
2201 1 -0.22335586433240467 2.7967880381065164 2.5817671721341857 0 -2 0
1182 1 -0.5289743392784888 2.468263238837859 1.6176372199602636 -3 0 0
524 1 0.7209203476568528 1.6494100407475303 1.4680417105914412 -1 0 0
2479 1 0.6955345092729858 2.715533463444996 1.9067515678499805 -1 1 0
1124 1 1.595519240020131 2.291054644023659 1.5253712261784673 -2 1 0
3639 1 2.572100739130794 2.581764306328823 2.1952147988150177 -2 -1 0
526 1 4.24017942227729 1.6259288602379915 2.753250847781202 4 -2 0
1519 1 3.8652673988551456 1.7111278893617912 1.4955741311467692 -1 2 0
1140 1 4.891506583413423 1.651109007143445 1.905298983314824 1 0 0
898 1 5.005741482157466 2.2755442897271796 2.793446479720364 -2 1 0
1696 1 5.2018007549518215 2.7460132245044124 1.6140136337236628 0 -1 0
2875 1 6.761668213211396 1.4650194299647674 1.843787859168471 -1 -1 0
2069 1 5.922162624309078 2.1893248110388694 2.1795614058394324 3 -1 0
441 1 8.423828193345074 1.445268129765544 2.190257826253331 4 2 0
3222 1 7.5035831916205415 2.1955753577146537 1.522458337041457 -1 -2 0
360 1 8.43018823744967 2.6535593121570598 2.4025381433147848 -1 -6 0
561 1 7.476268829962217 2.1105162330096987 2.713156201892519 -9 -3 0
3238 1 9.103695307344587 2.130157991573833 1.693190062394047 0 -2 0
2329 1 9.851634330163975 2.618460199846928 2.4154265339767527 0 3 0
2547 1 -9.334912803508844 3.52659059871262 2.046709147037452 -2 0 0
3700 1 -8.540465652787423 3.6641565863702246 2.6664123788515193 0 -1 0
3037 1 -7.453316827303271 3.736327801663365 2.2992005220711613 0 -2 0
379 1 -6.675163893245265 3.0741743022584522 2.073046268947613 -2 -2 0
866 1 -5.915776158080742 4.281801799360144 1.6183423125078946 5 1 0
362 1 -5.816813334741994 3.2213983888866675 2.677893548633173 -1 1 0
458 1 -4.991397219504364 3.7409976478038693 1.7730751103332336 -2 -4 0
2444 1 -3.864308044889807 3.284946343189678 2.335090966187639 -3 -3 0
3512 1 -2.329600302496296 3.418197843722333 2.364580693394094 0 -3 0
2896 1 -1.6563774337187793 4.128395401673728 1.954378272771896 0 -3 0
2686 1 -1.346739161041446 3.0570161260484237 2.1354384807864855 1 2 0
469 1 -0.3475579459336244 3.569077909319825 1.7381168392114252 -1 0 0
3459 1 0.5991410391662664 4.143054874811527 1.9117224821772472 5 -1 0
1698 1 1.4626869303255787 3.3243423855021326 1.9699425002723991 0 -2 0
2246 1 2.4972229303868914 4.0021435550718945 2.0638797527315824 -2 3 0
2940 1 4.126834848568378 2.8866930564246336 2.2518769172047395 4 0 0
2551 1 4.5493851822722675 3.7604723896702335 2.8434425321018395 -3 4 0
2736 1 5.500886009751933 3.2302585263620633 2.61394183173231 1 1 0
3168 1 5.115418988376895 4.149904307744116 1.9920546903575578 1 0 0
1661 1 6.242695601554549 2.8932149730632597 1.5115111875551974 -1 -5 0
3267 1 6.381048132478438 3.960707478575243 2.1966855088325428 -1 -2 0
2776 1 6.7536282642503815 2.940980091652933 2.600134318985231 1 2 0
2550 1 7.437609046153116 3.691262051663937 2.1802379892525776 -4 1 0
2606 1 9.40836667932522 3.827744385137827 2.8302673291665097 0 -1 0
2270 1 9.069959131053173 4.091664776347914 1.7838913422921596 1 -4 0
570 1 -9.455845318409454 4.806186845032728 1.7751789312600612 3 -1 0
1288 1 -9.66942232204689 5.458525433796251 2.521407239627494 -1 -3 0
732 1 -6.914288424563512 5.064548226968449 1.7368364156094163 2 3 0
3210 1 -5.442925023787169 4.348399573985559 2.6526902930530083 -1 0 0
3173 1 -4.490942885697752 4.908631106333473 2.388149781912971 -1 1 0
1682 1 -3.598698938009953 4.340145488139637 2.35672690938524 0 -1 0
1977 1 -3.5296567043066873 5.537658711354033 2.3825818040115347 3 -2 0
3109 1 -2.446946141254558 5.440376335296691 2.2695689821475806 -1 0 0
2805 1 -1.1884907595124254 5.379024079758831 1.965866970228817 -5 -2 0
885 1 1.2324474704643262 4.929269673928172 2.4103422094626783 -3 1 0
3161 1 0.09155400304987399 5.703175039434691 1.769501278014068 -1 -1 0
2063 1 0.0732800034621594 4.63089544394233 2.704874457196012 -1 -2 0
705 1 2.004067375078757 5.022222110591888 1.570377737502703 0 3 0
2198 1 2.510191803102239 4.9019743350726435 2.620330833417913 -1 1 0
2739 1 3.825578873424887 4.561065512861452 2.129063009266572 -2 -4 0
2082 1 5.218274926761202 5.175633660938779 1.7781663686425877 -1 3 0
2468 1 4.661178124115973 5.023183131040702 2.747401778024194 -1 -3 0
957 1 5.768395560346989 4.695215276998169 2.6614920291548874 2 1 0
863 1 6.263296871670175 5.492434082269871 2.176081355753834 0 1 0
3809 1 7.1845042366482295 4.948101976645825 1.9434933138482258 1 1 0
1841 1 8.193563597873556 4.906965999466975 2.3856199084996983 -1 -1 0
2313 1 9.328352654202835 4.9475460598138215 2.8396370316898927 1 -3 0
2332 1 9.374614198849391 5.236847641378178 1.8717522108503146 -4 1 0
535 1 -8.759968179687728 5.839753742712111 2.0297888758908393 -1 -1 0
1621 1 -8.648926346592324 7.064452980997058 2.3534918406917176 -1 -5 0
391 1 -9.498901376649975 6.738799219872983 1.6259237942661329 1 0 0
3745 1 -9.43216784408129 6.532666884389912 2.7793373271029616 0 2 0
1522 1 -7.741129150160329 5.74266420792281 1.7586216953446312 2 0 0
2575 1 -7.753710854176607 6.442547400225174 2.5560488962021837 1 -1 0
3283 1 -6.694931196148278 5.843110282470561 2.2884490176084404 3 2 0
2987 1 -6.548420655597031 6.916722334108118 2.116677197180591 4 2 0
3669 1 -5.135300106297762 5.79181358193707 1.8212918665109954 5 -10 0
730 1 -5.570846070651826 6.56244058183082 2.460273084243718 2 -4 0
3029 1 -3.834447838729864 7.140957325366995 1.720178697640984 -5 -2 0
557 1 -4.134305772037604 6.099056283975581 1.7959278198319717 4 -1 0
645 1 -1.7034993120195558 6.792100493954727 2.797744305081985 -1 -1 0
3718 1 -0.584811713881873 6.596355298742719 1.7672122227640403 2 -4 0
2410 1 1.2415503936077397 6.115678167956635 1.6307332849208318 3 0 0
2021 1 1.1729285254186037 6.915982807236677 2.4162811952172434 3 0 0
322 1 1.9494705914520465 5.778350746485403 2.464372267623929 -2 2 0
3434 1 2.1403714858939185 6.672346889105074 1.8728152674508232 0 -1 0
1394 1 2.944139492968163 6.004659894222101 2.2244587403391405 -1 1 0
2102 1 4.543218423054169 6.406540055580486 2.1119995090832893 -2 4 0
323 1 6.89093795861759 6.95501097301828 2.248747106282786 1 3 0
3807 1 7.542587331956595 6.011993849341328 2.219914900542846 -1 1 0
3232 1 8.440994493353832 6.218667420138022 1.7349795063609106 -2 -1 0
2440 1 8.007531572952882 6.835062469309825 2.6798356459362833 -2 -2 0
3163 1 9.538473166783598 6.334489503860418 1.8860051121765566 0 -4 0
3605 1 8.732697024340958 5.888224668903358 2.8253343023808477 1 0 0
3833 1 -9.585143239933357 7.647594840656773 2.6389364043169374 1 2 0
482 1 -7.327923146291554 8.00299695713568 2.483704826427372 1 -3 0
3708 1 -5.734521568471058 8.30247677326494 2.5858832835644785 2 1 0
447 1 -6.634551067513666 8.408651871137685 1.6383609000046067 3 3 0
1815 1 -5.696810113896334 7.564545700531947 1.758114819250618 -2 1 0
3895 1 -4.13754234620111 8.307160349313543 2.037482141397622 4 0 0
1256 1 -2.9705872551122194 8.373553012176453 1.548084480089309 2 -1 0
3866 1 -4.030184745631004 7.3970475808765315 2.8258785440931065 -1 -1 0
864 1 -3.0269870200568714 8.334476401370168 2.608070376983165 -1 0 0
3384 1 -1.906345177019346 7.260080301765132 1.7948963082028313 0 -2 0
3985 1 -2.075802636524097 7.824095619363093 2.813624281149736 2 -3 0
3865 1 -0.8190841297336677 7.341880891289682 2.3967870414851458 -3 0 0
2225 1 -1.0269660199147985 8.205496282503589 1.7024612192220556 -2 -1 0
1033 1 -1.0651562894477904 8.408498780440548 2.6908264477299606 2 1 0
3513 1 0.18674252189882845 8.48200894902009 2.4313942773605635 -1 -2 0
1252 1 1.3673754407728915 8.343178651750053 2.4187249738134717 -2 -1 0
554 1 1.6922840179560963 7.659025668743374 1.7471533632808207 -2 1 0
3329 1 2.428262582287488 7.504057079614171 2.7080657407705564 -4 3 0
960 1 3.0151712939724966 7.168876736452691 1.617908070580828 3 1 0
3019 1 4.180245179582425 7.899162957918964 1.6119330133846292 3 1 0
1782 1 3.685526317062085 7.637580293214653 2.5101082878422885 4 2 0
1613 1 4.826404807489124 7.3666451157896145 2.5184371396428125 -3 -1 0
3995 1 5.231717248450809 7.777141474736767 1.5686450855757736 -1 -1 0
496 1 4.735244927337506 8.449988325813669 2.6172708054541687 0 -3 0
1425 1 5.912283044090803 7.640137436961147 2.444921604654924 1 -2 0
3320 1 6.70240405307087 8.400521108968109 1.6246784938731595 3 -1 0
1769 1 7.668857434817565 7.2018045052065816 1.6304073401583101 -3 -1 0
1323 1 8.21764886205162 8.127663080543963 1.7148703821867686 -7 0 0
1965 1 7.971326517911211 7.974698951121874 2.6572341037988343 0 0 0
2981 1 8.893275718445787 7.332543240255755 1.5804597691012536 0 -9 0
2379 1 9.063479429430242 8.334255480350848 2.7670975001576283 4 2 0
3121 1 9.746698962279094 8.459014644006125 1.8434245095458575 -3 3 0
597 1 -9.344044865851071 8.944313865538017 2.1676088132377247 0 -2 0
1240 1 -8.764490744418774 9.90917897436649 2.225738123351455 0 3 0
1733 1 -7.520312983807551 9.066140003738909 1.858191662484171 -2 -1 0
3313 1 -8.237141785923203 9.156770621598 2.850496215254423 2 1 0
2859 1 -5.740487667602209 9.233144070763498 1.714799140774013 3 -3 0
2167 1 -6.579127487575235 8.883358363360644 2.5293068925259896 -3 4 0
3926 1 -4.4173517609333475 9.32678945484146 2.4431065065473208 4 3 0
2287 1 -3.5364019695136415 9.33686426558471 1.810650857327263 1 2 0
2469 1 -1.451303824114721 9.297023659109183 1.8837392066796086 5 -2 0
1217 1 -2.4117218430728133 9.731184285335598 1.9779414501561718 -2 -2 0
1646 1 -2.148779574773664 8.610942438605118 2.0981265115965493 -1 0 0
2053 1 -0.3731491659946421 9.93341632196089 1.6746247182418403 0 0 0
1492 1 2.2289473200107675 8.811010942969332 2.716452574561485 2 1 0
574 1 1.4859201458612807 9.343068169671593 2.042471573985576 2 1 0
3967 1 2.6521169398217705 8.98199456946281 1.6522015878311094 -1 -1 0
1919 1 3.0394466847305166 9.587462049512482 2.7119657908734593 -3 -1 0
1832 1 3.6494695180764003 9.979593848857958 1.8525289291514133 -1 -1 0
2250 1 3.7558581041704797 8.80639645442782 2.351402189632793 1 1 0
3276 1 4.490335581563702 9.325652293851213 1.6989081219840092 -4 1 0
1271 1 5.442463507474894 9.695618700227696 1.6177051075769715 1 2 0
1475 1 5.5642475921676695 8.715533561567694 1.966820755108667 2 -1 0
547 1 6.636610155483803 9.70135318891846 1.6208175482030702 0 0 0
1218 1 6.3945407802953245 9.165914670549613 2.4817176077976835 -1 -1 0
2177 1 7.404426757775775 9.140448388064762 2.3943683587722133 5 -5 0
79 1 8.531301597511023 9.0636256379129 1.9680891192976318 -1 -4 0
2583 1 9.493783918618611 9.547743723420892 1.9400762361724702 -3 6 0
466 1 9.946520977396723 8.978339418333357 2.8464437145540504 1 -2 0
2998 1 8.90349433286451 9.563468412252133 2.8225331435993253 4 -4 0
3489 1 -9.396697862546556 -8.581078334444678 3.7414648753538295 0 0 0
3973 1 -9.964121729952991 -9.553632573473282 4.0076441021901115 -2 0 0
3564 1 -8.477400408394125 -9.597615882201946 3.3861819129953368 1 -2 0
1592 1 -7.5230504203486275 -8.87038589619809 3.3894719201058043 2 1 0
3603 1 -5.882529127688058 -9.557377387132897 3.713219389191098 2 1 0
1935 1 -6.479637478737514 -8.646028592977212 3.805019590721141 2 -1 0
20 1 -6.907372248518804 -9.547332826232932 4.086001219227634 -1 -2 0
1639 1 -4.313813463761782 -8.739326209886341 2.921208100552577 2 -4 0
186 1 -4.318568875810956 -9.827790381043233 3.346953521412639 3 2 0
743 1 -3.2744195622802508 -9.112769699568982 3.338576302967375 1 2 0
1833 1 -2.1332062132587537 -8.8276126473183 3.9303297777238786 0 2 0
2660 1 -0.40497631052782057 -9.699725451139209 3.4828745175488227 -1 -2 0
952 1 -1.3716576109880378 -9.615015153380908 3.7118995125943632 -4 5 0