LAMMPS data file via write_data, version 22 Jul 2025, timestep = 2050000, units = lj

8000 atoms
1 atom types

-10 10 xlo xhi
-10 10 ylo yhi
0 60 zlo zhi

Masses

1 1

Pair Coeffs # lj/cut

1 1 1

Atoms # atomic

2054 1 -9.219393908116247 -9.552965239708202 0.849185682917522 -1 0 0
1304 1 -8.657679400237 -8.64666291464753 1.0237353702766343 2 -1 0
7794 1 -7.719881936445062 -8.976868713768917 1.0221787941002787 0 -3 0
3784 1 -6.444115037770608 -9.552430896132629 1.0795853571380583 -1 0 0
1773 1 -5.335766025231854 -9.87101761057398 1.4006613554734588 -3 3 0
7355 1 -4.763399446967191 -9.110904993684517 0.8665183745610068 -2 -2 0
4681 1 -3.822640642395773 -9.81651515691166 0.9981136748973471 3 -2 0
7163 1 -2.686826371712841 -9.816946281665658 1.1256158944841579 -2 0 0
4560 1 -1.5667112625484334 -9.863858627760948 1.050030568006046 -2 3 0
5253 1 -0.6956907554079471 -9.28567946356695 1.280396195946615 0 2 0
4025 1 0.6557952552667072 -9.758123605577257 1.0272499056910391 0 3 0
7789 1 1.763701214059675 -9.804922861298598 1.2400144215352502 -3 1 0
5799 1 5.607307153905631 -8.890253284275476 1.2751646696654593 -1 -2 0
5798 1 4.740185388593343 -9.16443690155892 1.056616355587451 1 4 0
3745 1 7.473559601344952 -9.264236095297855 1.323870009152579 0 1 0
3494 1 9.357240266745315 -9.266180247750318 1.0408665643928483 4 0 0
7035 1 -9.415643309505713 -7.454821703012227 1.2081142575579253 0 -1 0
7472 1 -9.805616372318404 -8.488253619170957 1.1532610740694034 5 1 0
4389 1 -5.7486192115078705 -7.7325945339513 1.01498031446524 1 -1 0
7118 1 -2.5058708406982384 -8.395806010195388 1.0868708091642936 2 -1 0
4933 1 -1.438899024382789 -8.076369158065543 0.9472541803700871 -3 3 0
2528 1 -2.161570438547066 -7.237137017887827 1.0673215104921003 6 -3 0
3802 1 -0.16134031222825196 -8.289739637240292 1.3955682919542236 -1 2 0
3240 1 0.8981771407015312 -8.147077962215734 1.3405402766381436 3 4 0
4886 1 1.7800602175136258 -7.693216537508504 0.9150563938532624 -1 0 0
5510 1 4.525924750924111 -7.7820081489763755 1.225621548401942 2 0 0
741 1 6.63464482591892 -8.485074388973727 1.1326365373225034 -3 0 0
3656 1 7.817222514372039 -8.068983200797197 1.033514744692185 4 0 0
7299 1 9.188168973154148 -7.9088611908532895 1.449586363169475 -2 0 0
1196 1 -8.868588093457033 -6.492585769981335 1.4820356726154866 1 1 0
1973 1 -7.790556955641332 -6.817865147998072 1.2926881870716964 -1 1 0
5470 1 -3.244245244795359 -7.11688458753846 0.9768399350245344 0 -1 0
627 1 -3.549736799282845 -5.901165409969389 1.3773200247593473 2 -2 0
7070 1 -2.3809525268186746 -5.7893310848024315 1.2593039594803002 -3 1 0
5107 1 -1.4700814666673279 -6.373367404799451 1.4143835102573776 -1 -3 0
1867 1 0.42016791135431397 -6.3802193967920395 1.432562324210969 4 3 0
860 1 1.486172637997254 -6.705183872246459 1.1791518137477297 2 -2 0
3073 1 2.3278125756839674 -6.002207222430011 1.1695483900394243 1 -1 0
5895 1 5.752732389719516 -6.548991012184217 1.1204987975402942 0 -4 0
3661 1 6.833878270895956 -6.795681014579746 1.1884804008530525 -1 1 0
4319 1 9.074740828700476 -6.995258838831819 0.9689939141354615 -4 2 0
2223 1 -8.223017151071645 -5.620331265537026 1.071431020394367 -1 2 0
1374 1 -8.031861595437997 -4.555250052772292 1.0617984030340202 -2 0 0
4198 1 -6.218830198424671 -4.936755285185961 1.0376568333172367 -1 2 0
3864 1 -4.861453390582141 -4.955485042745101 1.0306302419877795 0 2 0
1318 1 -0.2191303850125753 -5.4800799026798686 1.2020791715153831 0 -2 0
7695 1 1.193616293131244 -5.6582017264017415 1.0096284572633154 -3 4 0
687 1 2.097751590982266 -4.7392284956215995 1.2676138600788018 2 -4 0
6105 1 3.3976199429983525 -5.139650401258615 1.271294706127046 1 -1 0
2671 1 4.365494124110033 -5.2665940558336635 1.1208732361470413 3 1 0
4236 1 5.942580506281522 -5.421924436413447 1.4449454105981259 2 2 0
3064 1 6.70570137393627 -4.931208225134808 0.9628084919466255 -1 0 0
2868 1 9.93049259350569 -5.615757944475651 0.9973196405132747 1 0 0
7107 1 -5.617226973100564 -3.968753107355 1.3023507166276156 1 -2 0
2218 1 -3.38930862046023 -3.519348755105999 1.2042814447986492 1 3 0
6285 1 -2.3454176142757794 -4.045177854000204 1.0175548669252623 1 -1 0
758 1 0.8794499132350299 -3.9851281581403555 1.0965644137695876 -1 1 0
3283 1 1.5542226353863027 -3.2101490327255173 1.2615559492252135 1 -2 0
5694 1 4.936566045450791 -3.466945432503945 1.065128412514807 2 5 0
770 1 6.138149060548476 -3.9562402780978028 1.2251381301472233 1 0 0
6643 1 9.598868960613315 -3.164017452619083 1.1525547718602869 0 -1 0
2177 1 -9.105674675096074 -2.4525562428663807 1.1056665148780336 -2 1 0
1809 1 -7.88755503763083 -2.3691380142736445 1.4806927155854905 1 0 0
3692 1 -6.3979452138870565 -2.569544442309596 1.3194246691343015 -2 -2 0
3567 1 -5.712421467675326 -1.8222526088397653 1.2824976282445963 0 1 0
6507 1 -4.376006078887271 -2.305988879390911 1.251923516680838 5 -2 0
5633 1 -2.543397787255748 -2.841772809100344 1.484428866195954 2 0 0
3313 1 -2.3593860844999606 -1.8522265689654178 0.9743551203185737 2 2 0
3922 1 -0.3403968532430697 -2.3225876343466663 0.9830958689273256 1 0 0
3925 1 -1.2061170575187008 -1.4665469448889745 1.0580219615167599 3 -2 0
2605 1 1.014446109686477 -2.420576661157374 1.4270748350147808 -2 -3 0
173 1 1.9223032412316443 -1.770207004810459 1.3123059724197306 0 -3 0
85 1 3.5907065713762623 -2.776624714732266 1.1149660781805206 3 1 0
3736 1 4.417686125907232 -2.255109468070034 0.9801658296021176 0 0 0
5892 1 7.59226582136376 -2.4538983265866654 1.3512713085645334 0 1 0
3764 1 8.71781369157825 -1.895611609006306 0.9714234291049318 -3 -1 0
5701 1 -9.881074283439021 -0.2779248462783795 1.3344471677109195 3 0 0
2075 1 -7.792636978229507 -0.6442281166256626 1.1072570326267202 3 0 0
1777 1 -4.046131081853007 -0.3382558190600688 1.1007310818125677 2 2 0
1714 1 -2.2053023035669104 -0.03748883942695181 1.341892535515554 0 0 0
2142 1 -1.0848111744950348 -0.37643671118077104 1.3014132200944615 -3 1 0
4932 1 2.9976639086176644 -0.961224264787094 1.2610404419326382 1 -1 0
58 1 4.028513261318204 -1.271277796668975 1.2270018535302032 0 1 0
2288 1 5.131679022311302 -0.98557884340312 1.1866382584306852 -5 5 0
2309 1 6.735364997416344 -1.3345935535839295 1.1952062153344571 1 3 0
5902 1 6.998348545126585 -0.12385112712200044 1.2364532231325434 1 2 0
2848 1 7.799621717038129 -1.0398763464077714 1.20812652960994 0 0 0
3865 1 8.970388245577706 -0.9056588595101347 0.9900755720634468 -1 -2 0
4190 1 -9.235126114695227 -8.945056570741347 1.9516205134005 2 5 0
5021 1 -9.632030042922922 -9.495957661933977 2.967019065404515 -2 -3 0
6484 1 -8.465156626390474 -9.52997573190746 1.7225028664030229 5 -1 0
1688 1 -7.182854849367803 -8.75285801793306 1.892034131146249 0 1 0
3614 1 -8.19102787150751 -8.59843993265421 2.0855115258994643 -3 3 0
1791 1 -7.543801140531835 -9.122489890698438 2.9246074229984074 2 0 0
3289 1 -8.236496391789538 -9.86989819439124 2.736022006692075 1 1 0
886 1 -6.144596914569318 -9.36246858290343 2.16434567887948 1 0 0
498 1 -5.3473257507855685 -8.948715709295797 2.625759222798959 0 1 0
1509 1 -4.247901222989074 -9.138939238857809 1.960138580835347 3 -4 0
638 1 -3.1196859642596713 -8.898662059396543 1.927737761627409 1 1 0
4261 1 -3.729586940007088 -9.189306923943956 2.8839117640182583 0 1 0
5153 1 -2.127079551282437 -9.316624963263457 1.992654008289652 0 -2 0
6319 1 -2.7030542095381414 -8.776964184662944 2.9575061207869484 3 -2 0
477 1 -1.169874736581157 -9.823906936726953 2.193872423766932 -2 -1 0
944 1 0.9892975506440411 -9.83504872143169 2.7659964891526885 -3 -1 0
1286 1 0.5335119531595055 -8.760409023028862 2.3367044166400137 2 3 0
1019 1 1.4882607941935246 -8.914361108969167 2.588150888218683 -4 -1 0
476 1 3.8753335820917623 -8.827589070953593 1.7675986766443186 -1 -2 0
1258 1 3.1356525619107236 -9.519711207409305 2.9742907788739124 -2 -1 0
4883 1 5.691087392066472 -9.644975195147557 2.1723327584294045 -3 -1 0
2160 1 4.773074509515709 -9.102458418781117 2.1432427615865643 1 3 0
222 1 6.890136475493943 -9.49341288588574 2.1452610654048336 -2 5 0
1188 1 8.505033352345444 -9.330712702151981 1.7957995180127044 -1 3 0
1348 1 7.714600471144456 -8.702156678299781 2.1313880750210417 0 1 0
7437 1 9.80936302311665 -9.000049404568902 2.3294841918897067 -6 2 0
5757 1 8.649077394456066 -9.94353102296473 2.7319544152119715 3 1 0
7509 1 -9.133851128534268 -7.937362158105549 2.242437521069586 6 -3 0
7337 1 -8.366340662462832 -7.27208086585755 1.98454862343107 0 2 0
7561 1 -7.353551440045434 -7.780228880405783 1.7030263168552713 -2 -2 0
6037 1 -7.126413754297147 -8.091690745225904 2.6441338610759058 -2 -2 0
2427 1 -5.943150543397052 -7.854836833907988 2.0216765279425983 -2 2 0
975 1 -5.02939582738774 -8.458636782066675 1.748307596745281 -1 0 0
4468 1 -4.535466438218905 -7.444453617207829 2.7183460080898416 1 2 0
430 1 -4.99104141433016 -7.341857555895204 1.614894624325968 -4 0 0
334 1 -3.5204045986218793 -8.118261250229864 2.4421095371140726 1 -1 0
7233 1 -2.475798946499191 -7.6190998659438245 2.0373806845533062 -1 2 0
7492 1 -1.911282443266034 -7.817660402852265 2.9479326088896514 2 -2 0
1759 1 -0.7202709134847783 -8.277469135632698 2.812530396344531 0 -1 0
5279 1 -1.264690654343448 -7.186546136926804 2.3807482348436655 -2 0 0
7435 1 0.4386147380120079 -7.413057558789974 1.952623833331172 1 1 0
1142 1 2.2107748246715193 -8.441788289110365 1.9120468271091964 0 0 0
5946 1 2.5982634327864877 -7.297233992204543 1.7781745106355324 0 4 0
7820 1 1.6642293024285508 -7.564272010548498 1.966223075186165 -5 3 0
2235 1 2.2331243511326204 -7.782226911939214 2.8721893049600284 -1 1 0
3359 1 3.458754654582844 -7.940437318609583 2.439035641644487 0 -1 0
5149 1 4.82947755988185 -7.441100835964945 2.779893356854965 0 2 0
2293 1 5.389636667374397 -8.559246752103013 2.961820826059748 -1 -1 0
5819 1 5.823100067823978 -7.985524967358451 1.8780008771020715 1 2 0
3390 1 7.0425893028288025 -7.692401044756736 1.8099139279719472 -1 1 0
6822 1 8.254284359017998 -7.4315988648814795 1.9378471058948548 -5 1 0
2285 1 8.840371788458807 -8.455787354345052 2.4705305696881497 -5 -1 0
5618 1 9.797503383719107 -7.944309479485878 2.4041459736330855 -1 2 0
1322 1 -9.413243092244997 -6.868694378046847 2.368876749769172 -2 0 0
6136 1 -8.67701874539505 -6.255212565102528 2.91406299932656 0 3 0
7348 1 -7.824412800267411 -6.379984444367923 2.3351944442428785 -3 1 0
4437 1 -6.810407026766665 -6.409534273300379 1.7509547153835658 2 2 0
4021 1 -6.349144614484554 -6.024721920846821 2.941909899468954 -1 2 0
5774 1 -4.662847454170916 -6.287389810213098 2.8967825697625513 1 -3 0
2352 1 -3.6791633795942587 -7.061452109759703 2.024082581884237 0 -1 0
1336 1 -2.3570202456242955 -6.4770735209093235 2.0170329814817847 0 0 0
2013 1 -1.6739528184710055 -6.0611889359779285 2.81988271504619 0 -3 0
2553 1 -0.509862840719754 -6.3726466601768745 1.9597119358194557 2 -3 0
2714 1 1.0558048274918745 -6.01669333871232 2.2279946082216866 0 6 0
2212 1 2.201922238335221 -6.537124373603744 2.403301533350176 0 -2 0
6685 1 3.7130030548905304 -6.711605685282925 2.0028950738705285 1 1 0
6675 1 5.136599739990199 -6.8182030428339475 1.9469067632747745 0 -5 0
6900 1 4.398983184261065 -6.39160019946972 2.690386503112462 -1 3 0
526 1 4.964881631219608 -5.815251805974997 1.8471844674961184 -2 0 0
178 1 6.173782005946134 -6.762459453013623 2.0887208806572657 1 -2 0
5037 1 7.027977841139822 -5.79465090559086 1.6300068796785447 1 2 0
1529 1 7.063360056756984 -6.150651707125338 2.9680798829738286 -2 0 0
7848 1 8.122166384007901 -6.340605561357135 2.6198151269747316 2 5 0
6704 1 9.993476780861327 -6.520641589636479 1.5247527887260783 0 6 0
648 1 9.418414630956544 -6.998948146638142 2.6810100248464295 -1 -4 0
1195 1 8.99710690532467 -6.275554622890088 1.9092201943402518 1 0 0
1373 1 9.443027470601896 -5.727425772190227 2.8018580090370726 1 -3 0
145 1 -9.179551389144429 -4.759370443529697 1.5077840336750363 -6 1 0
4981 1 -9.66384495191448 -5.633295052933113 2.1361829032071795 3 -5 0
4633 1 -7.329724700578628 -5.41875673980843 2.0965140299586364 -3 2 0
1880 1 -8.377108039574066 -5.4901655980039825 2.133873572614572 -2 0 0
5327 1 -8.206628458367522 -4.44005682361287 2.2808818513526345 1 0 0
4336 1 -6.962787422039218 -4.311747327402944 1.8337759431937313 -2 5 0
4950 1 -6.047379530153729 -4.965427138572199 2.234783174763585 2 -1 0
6403 1 -6.754576899818832 -4.984505169115096 2.996344490514831 4 2 0
1952 1 -4.924587731973085 -4.719719595175884 2.555099550914351 1 2 0
4194 1 -5.335684010253804 -5.645991388048179 2.403090672729854 -1 -1 0
3651 1 -2.5418588850291206 -4.880286072737673 2.1028558992272406 -1 -3 0
1792 1 -1.0172612334497386 -4.440091708769759 2.8766821658509523 -2 2 0
5434 1 0.000684879525730639 -5.043560324515672 2.527308120778114 3 2 0
5103 1 0.6591928213107037 -4.968497348971317 1.670437828676416 -1 -2 0
7747 1 1.0508326773502812 -5.16440565626828 2.868894291161848 4 -3 0
6033 1 1.9053847263745656 -5.354552400545553 2.098089059057565 -4 1 0
2763 1 1.4682419819437569 -4.368789585576415 2.117266504176478 4 1 0
2202 1 2.6151284299156194 -4.475025875391163 2.99699077076251 0 1 0
6654 1 3.702035584863203 -5.127409763277001 2.307821040147429 7 2 0
3944 1 4.29746641364444 -4.490731666175875 1.7934980859162353 -3 4 0
1205 1 5.575796896796216 -4.788833753738042 2.263177835952905 -1 0 0
2550 1 6.787477722138532 -4.41406705309231 2.2161549336777115 3 1 0
2981 1 7.731499734174466 -4.806542107232764 2.3142756868914125 1 2 0
6201 1 9.564177862003671 -4.714050383368255 2.492415340723891 1 -2 0
6226 1 -9.507515165043634 -4.169055842477733 2.8531727520557264 -1 2 0
2294 1 -9.740712298362755 -3.1264310389693506 2.8458355952673244 1 1 0
7259 1 -8.168218460251333 -3.3379730399405667 1.787610250796368 -4 -6 0
1859 1 -7.14372249483978 -3.213622336428768 1.9074396769466824 2 1 0
2023 1 -6.161108438614001 -3.8936608021414507 2.3087542267603522 4 -1 0
3501 1 -4.3296631810109 -4.163981082655222 1.8833690243489472 3 -1 0
4297 1 -5.0804784399750575 -3.2649941343429902 1.9706709388706447 0 1 0
6781 1 -5.1018913014309195 -3.7602621069793547 2.916203868507521 -3 1 0
4311 1 -3.7799230735393965 -3.7023520348700716 2.6865130552981755 -1 1 0
2440 1 -2.8737076240025377 -3.7634997151063474 2.1471746412600874 -2 2 0
2175 1 -1.9425876741658608 -3.6168447518887197 2.8560086944844696 3 1 0
221 1 -2.7926715034484135 -2.865175258896594 2.80554075282579 0 0 0
7102 1 -0.6717732413192153 -4.275954745586637 1.818752518208956 2 1 0
7487 1 -0.9144906323121861 -3.321193493632694 2.529852079140978 2 -1 0
7720 1 0.03999599809387045 -3.1731623339951445 1.991035679821642 -3 1 0
7255 1 1.2011414403623162 -3.1870058761727647 2.176964523515609 3 -1 0
3075 1 0.4249441539775312 -4.011804723734852 2.5850654280571437 -1 0 0
961 1 2.2419456684345547 -3.60312726585332 2.5821854830145368 -2 2 0
2338 1 2.9020712694176236 -4.248621191337321 1.857337449901213 5 -1 0
1769 1 3.09439623414453 -3.028844274327788 2.416101674016424 0 0 0
6876 1 4.728364859160316 -3.9835597689373046 2.8307968139314066 1 1 0
1067 1 4.501404022245416 -2.986212598607628 2.0122787989026514 4 0 0
6038 1 5.6509374276683 -3.4360579656712185 2.224586897664911 -4 4 0
2851 1 6.76486786665926 -3.1735031563795295 1.7279423173645314 -1 -2 0
1353 1 6.830654685305931 -3.73027155713293 2.953000608713267 -1 -3 0
4254 1 7.916372637437343 -3.267487451177016 2.219761527343619 -4 1 0
6127 1 9.999328216045518 -4.110868356803201 1.6575072526260348 -3 0 0
4528 1 8.65509991750673 -4.103029188026134 1.8673692072115127 -2 2 0
6101 1 9.204536609685922 -3.709833392231654 2.7827978733970444 0 -1 0
7856 1 -8.900319355326642 -1.5922156393404046 2.672519935342152 0 -1 0
5651 1 -8.953987222242603 -2.622712433974956 2.319599777052062 -2 -1 0
2191 1 -7.111347139792155 -2.0232199489293454 2.4626921293437616 3 -2 0
762 1 -6.0580538974594065 -2.793721991455559 2.5582064182873574 -1 -1 0
3199 1 -6.145152838588986 -1.7247704935589432 2.974080445374913 1 -2 0
4133 1 -5.071369023551954 -2.1499335507736914 2.190898967534315 2 0 0
2204 1 -4.352170099627767 -1.8038011735465511 2.952422963419444 0 0 0
2501 1 -4.050764262220624 -2.7929730618536506 2.35323836938718 0 -2 0
109 1 -3.287149181951237 -2.077251791335346 1.8462808059672533 0 -1 0
7736 1 -1.6220478660748416 -2.362865586683809 1.779402097098444 1 -1 0
469 1 -1.8542860547358548 -1.6171027190621874 2.6853106728774025 -4 3 0
3179 1 -2.838479851243712 -1.8686952254296982 2.8722667394199064 -1 0 0
7236 1 0.3962413283363169 -2.246923133574219 2.3654422656027396 3 -4 0
367 1 2.3771822779344323 -2.800728685304947 1.7506674547077388 0 4 0
6636 1 1.8666127886355646 -2.243278287899445 2.5408640328322045 -2 -2 0
3641 1 2.6851203685748293 -1.8002816293746842 2.913111294373951 2 -1 0
5392 1 3.247431884141706 -1.935174196602575 1.7500418370017525 -1 -3 0
4477 1 3.7232729537450364 -2.26522594549719 2.768529950671986 1 0 0
3248 1 4.834082854549481 -1.8829527911004407 1.8611264941935044 0 0 0
679 1 4.904192317473315 -2.3847346008530192 2.9268779566639793 0 0 0
3000 1 5.996456655873671 -2.0911582866992084 2.227783576868212 0 -2 0
6899 1 7.418369928208602 -1.939861727465475 2.2742751566296855 1 -4 0
6968 1 8.495717984652511 -2.6149326479561372 1.6756238455360952 1 0 0
7792 1 8.342508627485662 -2.3383911850195167 2.760758837900554 -2 -3 0
3752 1 9.596967240887796 -2.854966900308453 2.1270487095568575 -2 1 0
2746 1 9.970902273630768 -2.007262022594154 1.6608424943415527 2 2 0
2437 1 -9.164081977821978 -0.16297935843721004 2.9040299388000412 1 2 0
7504 1 -8.663905367228969 -0.40423174835121595 1.985408863209407 -1 -3 0
3506 1 -7.69847757151633 -1.1460953247456114 2.030370612414809 1 1 0
7781 1 -6.497603931603014 -1.3263380775687164 1.999562330018865 -1 -2 0
6113 1 -7.044962316788701 -0.3542816498352078 2.348680315061625 4 -7 0
3127 1 -4.821110952666086 -0.7239790579527662 2.7684085674444314 3 1 0
6871 1 -4.176369030637889 -1.1282267297247277 1.8616591135307907 -1 2 0
4315 1 -3.2618610317727303 -1.0987764017199841 2.301297970893649 4 -1 0
64 1 -3.1690964474347703 -0.19163587566305806 1.6415316213658702 1 1 0
6095 1 -4.0941796615820305 -0.2253523547062619 2.2515256162812634 -1 2 0
5993 1 -2.01811083580243 -1.0572167824287615 1.8626597021256897 3 -1 0
1238 1 -2.5563684736343513 -0.5465250457181944 2.704786766835785 -3 -2 0
5517 1 -1.4113302504209566 -0.172961393931632 2.3439657439730457 1 1 0
6668 1 1.0773285831549988 -1.1275101700634367 1.6940751953632174 0 -3 0
6548 1 1.0790588620963106 -1.3320911178399288 2.821113943288766 -2 0 0
4402 1 2.138312949782734 -0.5936938851805124 2.198519840222248 2 3 0
5244 1 1.4489988589942187 -0.09572279896740278 1.558137622172502 -2 -2 0
7946 1 4.19709277657882 -1.2260255956065418 2.40748564162523 -3 0 0
4974 1 3.178473264311606 -0.961858364213304 2.736958554451563 2 3 0
3714 1 4.175240397568707 -0.20096506639750597 1.5853702321514667 -1 1 0
937 1 5.2596102249551855 -1.152480845050222 2.6970402488835195 -1 2 0
7754 1 6.6726647606638085 -1.3188314556692318 2.6326513043504196 3 3 0
1239 1 5.97166397147476 -0.71563704958732 2.02704309795667 1 0 0
3241 1 8.537522470114151 -1.3031730876893868 2.0593797555349482 2 3 0
1661 1 7.640108775372169 -0.6528279692309835 2.225927482392413 0 -4 0
913 1 8.386184415420965 -0.01655835378219634 2.766548883796178 -3 0 0
2903 1 9.870549897600954 -0.8853369590615385 2.5635342608460236 -3 0 0
7667 1 9.12309544991581 -0.13261096311159684 2.015948304141731 -3 2 0
1564 1 -8.573141552081681 -8.95900174152139 3.147418236106186 -1 2 0
7243 1 -9.13156575257157 -9.139675176695224 4.075645550768089 -2 2 0
5958 1 -8.296813494184898 -9.793136756773034 3.856505182871893 1 2 0
4700 1 -7.56441336504461 -9.098956507219883 4.133480121530913 0 4 0
4745 1 -6.386738195765439 -9.048301891650281 3.275943436699662 0 0 0
812 1 -6.475280485460808 -9.400980043227488 4.3443570357370085 3 3 0
30 1 -5.3725329185529835 -9.321115894074183 4.249321781786717 -2 0 0
1985 1 -4.2969049101486165 -9.816759451467476 4.309850280030657 0 1 0
4957 1 -1.656545994445775 -8.740369495801245 3.4949828111681227 -4 0 0
2228 1 -0.41779601505237657 -9.707641039109113 3.648610202596609 -1 -2 0
459 1 -0.5136467292253575 -8.576240739371071 3.7939793168140854 0 -1 0
7816 1 0.49250255115731656 -9.131755700442142 3.517391808456443 0 1 0
5755 1 0.8295718141853784 -9.700843161717993 4.361386887444996 -2 0 0
7399 1 2.48627792092664 -8.87114263982688 3.408595837857949 -3 -1 0
6984 1 1.5511083463854378 -8.993228226225567 3.956788876010308 -2 1 0
5732 1 2.64085661041053 -9.672119320879563 4.272878845428082 1 -1 0
5077 1 4.216044710122044 -9.264183911839902 3.4094299648322726 -2 3 0
7611 1 3.1202491335218134 -8.807235160541655 4.257542524748176 -4 2 0
7449 1 5.190594732731384 -8.88984465398494 3.8563913467673654 -2 3 0
2902 1 4.435148756290963 -9.4319796746283 4.490323066438731 2 1 0
7896 1 5.212455355347495 -9.610677478495521 3.041473713378774 2 0 0
3131 1 6.349466020272699 -9.04021588595588 3.2306302956378783 -1 0 0
5702 1 7.45209141106293 -9.656793100245089 3.151378345813437 -3 3 0
1235 1 8.125985879305627 -8.873845939648826 3.1452779053964237 -3 -3 0
7389 1 7.1675676949129326 -8.68931659554666 4.153144815783234 2 0 0
1319 1 8.532810207429527 -8.61021954312429 4.075430257696912 -2 -2 0
2342 1 7.912260465095677 -9.46514842242996 4.041551611673662 1 4 0
3673 1 9.083860868800793 -9.351940272604208 3.5054274205490086 0 -2 0
1797 1 9.665679188047754 -8.980519279000573 4.294893228624072 1 -2 0
478 1 -9.579599356902687 -8.413369114111344 3.201124934944485 1 -1 0
2481 1 -8.834887604946896 -7.729130171651328 3.667293027097349 6 1 0
2708 1 -9.913185863681024 -7.377140659845049 3.434936659686246 -3 3 0
262 1 -7.790805848898192 -8.328973460959899 3.4908988926587248 3 2 0
3851 1 -7.835560332303501 -7.398248586057455 4.042700215873724 3 4 0
7633 1 -8.203401668518088 -7.331574565887008 3.0463028600780553 -1 -3 0
2500 1 -8.472714368817664 -8.320328358143149 4.448462538524903 1 1 0
2675 1 -6.8687014804270685 -7.942777060643647 3.904492229155188 -2 1 0
6293 1 -6.078518062403494 -7.957013904441152 3.210552490052354 1 -2 0
4438 1 -5.997782923432331 -8.533458632733886 4.267416369863939 0 -1 0
5846 1 -6.094670872394115 -7.257204798033865 4.454844887687745 0 1 0
1303 1 -5.008983368521016 -7.7365902904818995 3.723360202270454 2 -2 0
4107 1 -4.023268776868358 -7.843071222424428 3.7273005938105968 -1 0 0
7166 1 -2.9904459936149457 -7.311292256608264 4.107833147233587 2 2 0
3797 1 -2.5383813618423985 -8.435573110073722 4.2637155746924735 2 -1 0
7512 1 -1.626308637009881 -7.9102309007101725 4.240807700167891 2 1 0
7551 1 -1.0728128761235625 -7.265362251497211 3.374237888974926 -1 4 0
2068 1 0.15515998509050682 -7.505337532828249 3.3887903854921873 -1 0 0
225 1 1.198544996196401 -8.240299713195428 3.4203251262956127 0 0 0
525 1 1.992009509782833 -7.49906360074741 3.871827795190663 -1 -1 0
4876 1 3.0058691475102273 -7.552473895292514 3.6558252358697465 0 3 0
7889 1 4.139762746679426 -7.4865917300778175 3.6154388077092685 -1 2 0
125 1 4.187185863189753 -8.457054691187372 4.228440439701894 -1 -1 0
3048 1 5.288588612924429 -7.718287810814288 4.1342522291733825 0 -1 0
7963 1 4.290275064365735 -8.287878718017177 3.0153924312241482 2 0 0
490 1 7.018043953385076 -8.138869331927786 3.1611740517116074 0 2 0
7469 1 6.12711592654316 -8.371079998382125 3.99169510183375 -6 -2 0
1816 1 6.585074677430141 -7.347698683694439 4.146919247519698 1 4 0
7423 1 8.458200194783492 -7.303688278937902 3.0524166795584096 -5 -3 0
171 1 7.936259579778602 -7.745353074975085 3.8702574046734335 -5 0 0
4623 1 9.976487219090414 -7.979837027146572 4.409726240345358 1 0 0
3482 1 9.212421044654025 -8.093360585292476 3.4631753584658918 -1 1 0
4140 1 -9.10961796083117 -6.777168866331915 4.01081719579457 0 -3 0
5194 1 -9.924991437959733 -6.331880869457129 3.1840815096748085 -1 0 0
7159 1 -7.2475386679697476 -6.947927517220287 3.078340450437386 2 2 0
3311 1 -6.988193363234055 -6.223579416397559 3.806965670011811 4 1 0
1098 1 -5.578004697633198 -6.700224357949767 3.7279855042517633 -1 -1 0
5074 1 -4.297617357268062 -6.786043505156569 3.7515909502436275 0 5 0
7590 1 -3.6007935527864645 -6.083917154007434 3.1404074976449943 -2 -1 0
2225 1 -3.715526695580593 -5.999979716618377 4.360377734135061 -2 4 0
2264 1 -2.6957420052333054 -6.847898005309554 3.1200080165776356 -3 2 0
2629 1 -2.453757311047826 -6.463145515996267 4.433337585085379 3 3 0
156 1 -1.6406591718587613 -6.447993486380392 3.819034995654056 2 -3 0
2556 1 -0.16477193121885722 -6.201739401060117 4.151392189631667 -2 2 0
5881 1 1.0994607259520854 -6.9343585298618775 3.11662161624464 4 -2 0
6843 1 0.3305980407158815 -5.988814429427124 3.290612646667653 1 -1 0
1760 1 1.2402758336827815 -6.157210957910248 4.053910087029103 0 0 0
1013 1 2.633930307065466 -6.163752989885618 3.8816574422951886 -4 -2 0
3642 1 3.1918519823944704 -6.793740935780819 3.0173656322513946 -1 -1 0
1148 1 3.916488924303779 -6.418507345018055 3.6352565505905368 -1 1 0
3104 1 4.84912346323543 -6.722858362243971 4.121563228336016 4 -1 0
6479 1 6.084470507116582 -6.376617298317454 3.3196019063025823 3 -1 0
6546 1 7.925836379176057 -6.604218458968019 3.6944344918465593 0 0 0
6889 1 9.022261768081274 -6.773381143963702 3.722085901744525 1 2 0
7958 1 9.872629741301196 -6.76251372917964 4.321960729101231 1 3 0
2683 1 -8.68821810819939 -4.807529970981205 3.0927976198711122 2 -1 0
1417 1 -9.287350600272951 -4.626250619738684 3.94755723063028 -1 -1 0
7200 1 -9.718393314592237 -5.171570444607462 3.2296215461146187 3 -3 0
5829 1 -8.889008763907718 -5.652375264299852 3.768831320114195 2 -1 0
2600 1 -7.667334535874807 -5.609964203205555 3.0938962887558232 -3 1 0
7062 1 -7.2015644542163795 -4.720033319504552 4.1048789459187605 1 0 0
2359 1 -6.0772173683004524 -4.3009501363556994 3.494884696629409 -1 0 0
6875 1 -6.302089250477574 -5.492688804757567 3.9115110890409435 0 2 0
1813 1 -5.427274421710793 -5.060271464926341 3.47913080902584 3 1 0
492 1 -3.8912809053304 -4.750769358864159 3.2416946902685444 7 -1 0
7028 1 -4.258928336064023 -4.820827870641458 4.330254708987715 4 1 0
346 1 -3.218144254638202 -5.179466870408972 3.9942586529062964 -2 -1 0
2618 1 -2.623177195113494 -5.564433232499573 3.005366753621616 2 2 0
7011 1 -1.8237964835703233 -5.417734246406874 3.7287362236485984 0 -1 0
4305 1 -2.747402183295767 -4.490005069274279 3.064526814926838 -2 4 0
3338 1 -0.7550439999948861 -5.386109187370793 3.62894045336869 1 -1 0
1929 1 -1.2010481989826955 -4.419598016370149 4.11735978411136 0 2 0
6666 1 0.10386510083569386 -4.776859228620085 3.4613374309879252 -1 2 0
2379 1 1.1120536466421622 -4.948929419470546 3.9175356112559 -1 -1 0
1672 1 0.16072910727249362 -5.282262251297989 4.37316467059227 2 0 0
2617 1 2.1032722184170005 -5.480990531698765 3.2585461034416343 1 -1 0
4367 1 2.0788483175337853 -4.7577474685332914 4.209049091038297 -1 -1 0
17 1 3.3918644815463423 -5.177830706705337 4.236139902662096 0 2 0
4005 1 3.51398241837212 -5.595135705154955 3.221132760387473 2 2 0
6790 1 3.9719846208612966 -4.541492915390963 3.2453465862159336 1 1 0
916 1 4.267640560976352 -5.639664839005468 4.311189243333599 -4 0 0
6232 1 4.929117767296241 -5.666823820585151 3.4350515502398644 3 3 0
6732 1 5.3502567067608915 -4.8237150449212445 3.7962410377718725 -2 -2 0
6361 1 6.133896655024095 -5.208191560397586 3.3398920751305985 -2 -4 0
7126 1 6.886895836622309 -5.277977467853338 4.1385981876462505 3 -5 0
7033 1 8.527293746938309 -5.6488691185214694 3.600033887457617 8 0 0
6945 1 7.7708689743425845 -4.8372025538973045 3.3409325050242904 -1 -1 0
2635 1 9.086294425932419 -4.647825042573993 3.407524912431601 -1 2 0
1694 1 9.76477152887201 -4.529732814732527 4.463225688471808 0 1 0
5326 1 -8.671792963563359 -3.536164131804912 3.056668076405895 0 -2 0
1557 1 -9.018176448871468 -3.559797056838083 4.303528885944056 0 0 0
7767 1 -7.900348124656631 -4.118532355176204 3.472916694978595 -3 -2 0
2128 1 -7.752997974072954 -2.998307967226996 3.352463047014247 -3 1 0
3148 1 -6.816603831115177 -3.5435406613298994 3.016306129223835 1 -3 0
1837 1 -6.634974704569484 -3.2551306004850304 4.024981538127765 1 0 0
4942 1 -5.31609532247318 -3.6226673925075894 3.9402368947882915 0 1 0
6635 1 -4.325131045830998 -3.39023432718999 3.666106507819693 4 9 0
7131 1 -3.4383913996297055 -3.8243823497883462 3.874392970394402 4 4 0
1020 1 -3.0073782293731477 -3.010353458894392 4.417090208147027 2 3 0
763 1 -2.1607303100899213 -3.8226064209836808 4.017846321266505 -1 2 0
7045 1 -1.4979607926665626 -3.1121058117888873 3.610752752304002 0 -1 0
3991 1 -0.5658652906694505 -3.537805440624739 3.536689239178304 -2 3 0
1911 1 0.5953353639691398 -3.9188958681305244 3.7299825410282534 -1 2 0
4012 1 1.328833563165808 -3.104546755095207 3.1335462127811846 0 0 0
170 1 1.5864128482379418 -4.121374364169958 3.378618420983774 2 0 0
2690 1 2.4036955565122393 -3.738340332298797 3.895716794378362 4 0 0
7413 1 2.3686036833201367 -2.8580619572162678 3.3132406441252065 0 0 0
4407 1 3.8607205763392 -3.55750649341491 3.0892944239511695 -1 0 0
1774 1 3.6039964813526346 -4.085960480450075 4.213047846007116 0 -2 0
2884 1 3.322797970915154 -3.141527924355484 3.9418324600685906 2 3 0
5606 1 4.526370087581071 -3.0809890337833497 3.6198863147491362 0 -2 0
4101 1 4.72042401966815 -4.018727391885149 3.999278188790557 -1 3 0
6120 1 5.711236381314195 -4.127947534049038 3.117192234621005 -1 4 0
2573 1 5.983449383545808 -2.9097105505713445 3.076222968071492 0 -1 0
3097 1 6.8297588504698465 -3.1823822042193033 4.255506363442306 -1 1 0
5432 1 6.67349724485975 -4.284238266982761 3.8888016180368647 -6 0 0
6679 1 5.7793314257338775 -3.433474014027829 4.233993187141535 -2 0 0
6812 1 7.88637069858898 -3.8905953332664263 4.378153389547189 1 -1 0
7148 1 7.424845132150893 -2.9786056404743495 3.333132212696814 3 -2 0
1059 1 8.422802440649098 -2.905025023651793 3.760330214930995 1 3 0
3578 1 9.386087870421418 -3.798120151434754 3.8690054379727292 1 0 0
3885 1 -8.618868573258403 -2.3864007944696373 3.4296325772701306 -4 -2 0
5673 1 -9.930498300995461 -2.7850047256960235 3.9523642649435278 2 1 0
212 1 -9.926134138795012 -1.8205643799445386 3.113457963302956 0 -1 0