LAMMPS data file via write_data, version 22 Jul 2025, timestep = 2050000, units = lj

8000 atoms
1 atom types

-10 10 xlo xhi
-10 10 ylo yhi
0 60 zlo zhi

Masses

1 1

Pair Coeffs # lj/cut

1 1 1

Atoms # atomic

522 1 8.881354817669498 -9.073744817603817 1.4186682978350356 -3 4 0
4932 1 6.496668699178845 -5.946407110732557 1.4902149989990192 1 -8 0
7664 1 -3.1383705378668427 -1.1831403942337655 1.45694700991929 3 17 0
7666 1 2.7086530917976224 -0.1935940689848628 1.4921306262467215 -4 1 0
7323 1 -8.825593306947278 -8.971918024813288 1.6799723551692622 7 -7 0
3318 1 -9.154581754097252 -9.52268594034425 2.6751976710502627 -7 -3 0
4697 1 -8.367905630209844 -9.920402810713195 2.1199422318423498 -1 -1 0
5458 1 -6.590251582096527 -8.744269810337377 1.9875248220163408 6 3 0
7171 1 -5.509897180931327 -9.910300709342104 2.7481887738553645 0 -8 0
2091 1 -5.663141373174521 -8.879883449107075 2.704949642594594 4 -1 0
4922 1 -3.651423418578371 -9.308862993902986 1.7687110561030088 4 -7 0
593 1 -2.2494794844774555 -8.810700189256329 2.3404219547838934 -5 -1 0
2141 1 -1.762260333043533 -9.709784332783228 2.4280045893620623 0 7 0
3052 1 -0.64977230230257 -9.248530899821485 2.4949052964269844 0 8 0
822 1 0.31169182507179044 -9.22005262480143 1.7505558248718938 -2 2 0
7263 1 0.3756660713155543 -9.106919733642947 2.7555829143592856 0 9 0
3077 1 1.2996593352631918 -9.588142307409493 2.6705192192654645 3 8 0
7457 1 1.778576392798437 -8.90257945189793 1.5649549232136684 8 1 0
4506 1 1.8551537278974892 -9.943740647840707 1.6014860964231759 -2 3 0
7216 1 2.361197912538067 -9.17616916745824 2.4172767373846336 -1 10 0
2052 1 4.091254802190234 -8.85878928296171 2.089196375495414 0 1 0
7826 1 4.007670817847471 -9.48839477070474 2.9696073062280846 6 -8 0
2602 1 5.00182059212335 -9.335512981170785 1.7820929271466297 15 3 0
2725 1 5.651586547172206 -9.649404836183077 2.729106958206444 9 -4 0
5251 1 6.616123970516107 -9.064160972263087 2.2124009502371007 5 -2 0
6360 1 6.58836717233001 -9.984071834614353 2.8190091299921796 -9 1 0
3594 1 7.535635301383363 -8.756974983066971 1.6290139948180908 -1 -10 0
3426 1 8.512298865427075 -9.753119560374877 2.505722587557439 4 10 0
5891 1 7.473106796896633 -9.71323446286767 2.0914210677454976 0 2 0
5499 1 9.91472241107336 -9.160825865396893 2.058278635949554 3 -1 0
174 1 -9.867017541760974 -8.23999014667021 2.6732913145057067 -7 -3 0
4366 1 -8.853657800586252 -7.666232534790625 2.0189023876806806 2 2 0
2690 1 -9.765155452995304 -7.195714866927554 2.7991520880440337 10 -3 0
387 1 -8.208164984500756 -8.257694299608572 2.4711830754340185 -8 7 0
7589 1 -6.551691076480273 -7.97509441334876 2.8720473452407402 1 9 0
5483 1 -5.730637116881183 -7.6678720056089835 2.1194307459823003 4 -2 0
508 1 -4.698756928755956 -7.661410239615786 1.5468769316652062 -2 -8 0
6542 1 -3.418986880067093 -7.710213044251614 1.658269764863199 0 7 0
265 1 -0.11893956870703751 -8.295050590183987 2.3347935476497037 2 -1 0
4470 1 -1.421066840395623 -7.444106658831953 2.3777879522209235 -11 0 0
2460 1 1.2387859745198921 -7.659534283388328 1.5717525024001004 -2 -13 0
3235 1 0.5785504831274922 -7.5142868264295375 2.353610570951192 -2 0 0
668 1 1.1530193291322681 -8.498041091000273 2.5267182347762285 -11 2 0
4496 1 2.1405528977615305 -7.4000753368064816 2.6779984130092482 -4 -5 0
923 1 3.1270124540013327 -8.31221385983516 2.4550685389647606 3 2 0
7999 1 5.018531279476566 -8.283562123029174 2.9975556562336267 -8 -13 0
5825 1 5.443779943350366 -7.24580163109277 1.9911645973454695 9 4 0
553 1 5.952846529607528 -8.203177245944177 2.421281227470165 -2 3 0
1903 1 7.118451234517502 -8.146038720137513 2.941760883972101 -4 1 0
5153 1 6.311421786521476 -7.298815787787015 2.7182382862602585 -7 -5 0
6668 1 7.1032307901816285 -7.671450240464484 1.9500359076417224 6 -7 0
7329 1 8.29391424763842 -7.932136406532781 2.009093372366104 4 2 0
6878 1 9.053976758260525 -8.46570173887451 2.6515266601808563 5 3 0
349 1 9.532578750424827 -8.22216066870245 1.7078353599718616 5 11 0
215 1 9.237558347271086 -7.154202077788129 2.080199891892104 -8 -2 0
2185 1 -9.081589365212558 -6.029092253570971 1.9278815944125733 1 -2 0
6127 1 -8.745494256359915 -6.73346519865289 2.7786989455965334 0 -4 0
840 1 -8.109275912127694 -6.7690111563391495 1.8754357018885486 2 6 0
1745 1 -7.723209850852539 -5.714426876286392 2.0424500705952955 -6 1 0
1623 1 -6.954022538746255 -6.40158649279761 1.947160342023891 -8 2 0
5475 1 -6.265305734822477 -5.776476855492097 2.4549443378958578 -7 -4 0
5790 1 -7.117292085263664 -6.306305383316715 2.9786002194600223 0 -1 0
2349 1 -5.06796288568137 -6.0847126933074716 2.8057096171356157 -8 -2 0
2652 1 -5.3803313847051415 -6.50240981340642 1.8014919289798206 -2 -6 0
6017 1 -3.395956739316194 -5.967778659039502 1.8318591539604343 -7 6 0
5582 1 -4.1432444359093745 -6.75681640531489 2.071654152535293 7 3 0
2483 1 -4.016581440559989 -5.835853091617062 2.6401361770457465 16 -5 0
6691 1 -3.0454470973279 -6.804742762357701 2.5144685187673006 -4 4 0
2380 1 -2.2907497483503767 -6.9522974175763945 1.740960445667988 8 9 0
2471 1 -2.0767942357791407 -5.869650677625692 1.5810208158983452 -10 -7 0
4437 1 -0.7050874223679584 -6.191328122168912 2.5170293377196837 10 6 0
4415 1 -0.42486899439467524 -7.051697321618219 1.9812255224553754 3 4 0
1925 1 1.3287725494358829 -6.189583421298894 1.9800944638847784 1 11 0
2356 1 0.1119055870674697 -6.790445461159063 2.9955232547178987 1 -3 0
7307 1 2.491773759432331 -6.522455862981168 2.1054073184208884 -1 3 0
5962 1 3.9798241284441143 -6.823927846366454 2.7693415659766 9 -5 0
5230 1 3.1077988679205313 -5.7641118895834005 2.877311601240148 -3 11 0
891 1 5.190769372747949 -6.2328824032223755 2.195009134326128 2 7 0
920 1 6.437146717646099 -6.120100124608013 2.4459128342253065 4 2 0
1199 1 7.297147022166 -6.974539640785771 2.7918395736131507 3 -3 0
5162 1 8.114797168790423 -6.87660971761192 2.232469359747354 13 -2 0
5537 1 8.266812671704082 -5.887826883258957 1.6199019993848394 2 11 0
113 1 -8.604733155259058 -5.537469493752782 2.822960566480035 4 -3 0
4919 1 -8.867328846105064 -4.551104277636479 2.7231041273949614 0 2 0
2641 1 -9.117674515715063 -4.723574714326321 1.6866601303521787 2 8 0
7127 1 -7.33109913231618 -5.275080003318006 2.8929606366087697 0 7 0
2157 1 -8.119176699113039 -4.5031028951332 1.6350598933618874 14 -6 0
4249 1 -5.764836198259294 -5.298348067040594 1.5914777956910704 -5 7 0
2485 1 -6.130454185253355 -4.287277128878436 2.978146028088782 2 -1 0
2989 1 -4.813334116126534 -5.473704124186965 1.9355437445815415 -1 -8 0
300 1 -5.403768075184933 -5.121578827723586 2.7263389898581445 -1 4 0
4432 1 -4.988891799850893 -4.439372451618531 1.5784841724172647 4 -15 0
6039 1 -3.877368081748718 -4.716194764867713 1.5147427947381145 -2 0 0
7232 1 -3.3441416838009905 -5.028908138174878 2.6816344633539186 -1 -10 0
5529 1 -2.2625038963710185 -5.582951060384011 2.745454089668868 5 0 0
3741 1 -1.7735990204598795 -4.324768861615042 1.9660943926072405 -3 -7 0
2846 1 -1.1145996417923099 -5.270966590786377 2.1167706738617977 -5 -3 0
5881 1 -0.9538786995259763 -4.4835329237872665 2.9043914213616175 -2 -5 0
5443 1 0.0932247483892224 -5.147841052548155 1.8382147738758887 -4 -5 0
6853 1 0.7608070195821368 -5.374944320311972 2.742790547976383 0 2 0
7079 1 2.859733333627318 -5.28442108159215 1.777355109515748 -2 0 0
6643 1 3.2424530548907597 -4.467812813715618 2.9716192460947117 0 -5 0
3118 1 4.444873303133929 -5.426554521203178 2.5861702445557513 1 0 0
6994 1 5.51543962232044 -5.0917584629457435 2.602026578414645 -1 0 0
6737 1 7.131654694595572 -5.07042971139908 1.8176080536660002 -2 8 0
1229 1 6.636391691453864 -5.0411857528709065 2.678557924203633 0 1 0
4101 1 7.404247363631406 -5.662511683068615 2.6646084995926147 -5 -7 0
7059 1 8.20137295637354 -4.651915067618721 1.5318256004616058 1 6 0
2390 1 9.846819243599779 -4.842560559089436 2.4780316760184085 -6 -2 0
4934 1 8.825994477725265 -5.689979339044924 2.744660203936573 -2 13 0
1919 1 8.817351549789189 -4.661254623952215 2.4138269233117193 1 0 0
1841 1 -9.264314399710393 -3.4810104093519216 2.4795965810559895 0 2 0
6532 1 -8.233940185136493 -3.3083499903008695 1.6988300064309476 6 -9 0
7639 1 -7.311081081114978 -4.102166635428332 2.782198189573558 -1 3 0
5850 1 -6.438007161858622 -4.026509179059738 1.831975873543719 -5 1 0
4448 1 -5.228860845713471 -4.079934852480844 2.553215736508228 1 0 0
4789 1 -4.286466920160793 -3.7822304568091445 2.1194643587096653 4 -3 0
2671 1 -5.326873623824628 -3.4383370131331548 1.7706004319152417 -1 8 0
3988 1 -3.271515758000636 -3.112130213395783 1.5605502303730907 9 14 0
3216 1 -3.0530472955344465 -4.280938398285407 1.8174840761793276 -7 -13 0
3939 1 -2.068873878563578 -3.314546362467653 1.6675211221435402 3 -8 0
1638 1 -2.697505053960454 -3.403807203992856 2.5968638012244716 8 8 0
4240 1 -0.5445809466698459 -4.2611497148118715 1.7842405300503559 2 1 0
3540 1 -1.0774755313009314 -3.4149925261045966 2.6014393008998327 0 3 0
5869 1 0.9440735960630605 -4.2198407046226105 1.5673577714109388 -13 1 0
7197 1 0.8560392848179147 -3.081102660932729 1.68945553878633 -9 -7 0
4484 1 1.7720816610704324 -2.8955566271378723 2.151622757501348 0 11 0
2795 1 2.734351324953046 -3.17327122563 2.205506186289396 5 -5 0
1748 1 3.605615081503995 -4.017267442885853 2.041457526958637 2 -7 0
2474 1 3.8955815160478435 -2.9563715941635427 1.646353989964389 -3 3 0
493 1 4.905372648103599 -3.9951652261268285 2.0911241842888595 -8 -1 0
1363 1 5.895231584257184 -3.0577054178719876 1.8438764822223128 -8 7 0
1400 1 6.0283161574266515 -4.066266559853591 2.1959212273274025 3 -2 0
3864 1 6.797284227281283 -3.2811776013533844 2.8281300574357133 -5 0 0
4538 1 7.4882654492284635 -4.1834629847557725 2.146761175851869 -8 11 0
2917 1 8.305852598673958 -3.477143897970923 2.010064568836614 -1 -7 0
6373 1 9.272076916979817 -3.714415308806442 2.78717513675147 -2 -12 0
3230 1 -9.74262629012944 -1.474322879040462 1.6563964279746075 -6 2 0
1251 1 -8.939088605020403 -2.3972918117023 1.8084201572564325 4 -10 0
3340 1 -9.215797081898545 -2.438710145259822 2.8432850173062394 -13 -7 0
2938 1 -8.234255873983324 -1.887501059563985 2.4688931953483153 -1 11 0
7642 1 -7.198315080189606 -2.0173796348252298 2.159343966906383 1 1 0
4896 1 -4.6760239310144724 -2.5520297743549336 2.0311895698717852 12 -1 0
221 1 -5.077688182543641 -1.4524683247554844 2.8093319760861437 -10 -4 0
4305 1 -2.360271275959025 -2.127466479251782 2.4397392364640145 -1 -2 0
6333 1 -1.2443707500080685 -2.446462860118211 1.8546743739434515 -10 -2 0
2851 1 -0.7634278617925809 -2.195330023341961 2.7478864028584167 -3 0 0
7915 1 1.1591203609942828 -2.067144955871747 2.3800009189708664 -5 2 0
1118 1 0.019911031772717455 -2.589401352337309 1.9141124463976469 -6 3 0
5291 1 1.962936166064818 -1.8095590329705167 1.8330779225979852 1 -7 0
7025 1 2.7147014908648703 -2.3652137009283827 2.9047522326514525 -10 -11 0
905 1 3.4309429310917143 -2.1157972459926073 1.9948372804706898 8 -2 0
4858 1 3.833736555513762 -2.6843955244051285 2.712636378609444 0 11 0
4486 1 4.57556119294498 -2.0758615093562143 1.761725983368324 9 3 0
2363 1 5.450434315103861 -1.6162108658426557 1.6628753346917347 -5 0 0
7196 1 5.685840361299212 -1.661314017418658 2.790489626393068 -5 3 0
3875 1 7.496828760877454 -2.8261729168691634 1.6689332762315212 0 -6 0
848 1 7.855856008685017 -2.743693097336546 2.705496755837071 -6 -4 0
6688 1 7.8545824202118375 -1.7473502118268194 2.4287362373926165 -2 -10 0
3372 1 9.283636495717275 -2.267811475035454 2.0304099398611304 -6 -2 0
275 1 -9.562762697020053 -0.3767970274302896 1.9019290747899003 8 -9 0
2751 1 -9.193099791532797 -1.271275410972185 2.61868066571307 0 -1 0
3505 1 -8.147102849938662 -0.7119210900475784 1.8236429249288886 -5 0 0
5332 1 -6.306776832840856 -1.3232499910819209 1.6897528114694969 13 -1 0
5360 1 -5.602055017430658 -0.34216487140649293 1.6186643943201362 7 1 0
7641 1 -5.149822573463416 -0.31873734442355656 2.837814757652233 1 7 0
7090 1 -4.076235976832983 -1.2478988196825727 2.0648512518437947 5 11 0
4280 1 -1.5193974787507558 -0.9183961663253287 1.9707416341354336 -1 2 0
1230 1 -2.804616790445184 -0.9482679786438404 2.5690142558374096 -9 11 0
3681 1 -2.040648545821764 -0.0876530060598099 2.5076917209402105 4 -9 0
61 1 -0.3745991006553912 -1.1020019238806822 2.5446704615024265 6 -2 0
2487 1 -0.11334977596680501 -0.18903298663745893 2.2465111810887097 -10 4 0
6111 1 0.9255533484482777 -0.7243675981303367 2.1094922299292613 -10 4 0
2348 1 2.071781464806432 -0.6728880654521798 2.3184158147519147 3 10 0
2809 1 4.024351101330213 -1.4090986747443812 2.5585736323875277 6 0 0
1985 1 3.718610817209303 -0.7224589718158095 1.5735427655577456 -6 7 0
7048 1 3.0405752956103624 -1.4148441823935398 2.9581177644219596 -3 -1 0
160 1 3.686930091080393 -0.05687759534959322 2.512764824492493 -6 -4 0
56 1 5.4696106667675375 -0.5417865904951674 1.9448064861929528 3 2 0
3815 1 6.7875064546139665 -1.1161378553467067 2.4236688396934576 0 -3 0
5659 1 5.715680114036215 -0.10962961419162667 2.846780602981397 9 -1 0
5481 1 7.981060994424586 -0.1017882296750205 2.1594726373289204 4 -4 0
2268 1 9.811071223585907 -0.1571894564349243 2.844413338945539 9 5 0
28 1 9.735892430452697 -1.37040937167859 2.5677337132479043 -1 -2 0
833 1 -9.295114153576984 -9.535947058023979 3.8721476727192403 8 -3 0
3153 1 -8.231133075785499 -9.442334390486844 3.203115855786457 -1 -5 0
1442 1 -8.26907452292234 -8.620785847938723 4.255624562921937 -8 9 0
2954 1 -7.186293663901043 -9.30087573110116 4.223314457004727 -6 3 0
2875 1 -6.5927356994296895 -9.109540228484564 3.337088892709897 -3 -5 0
5584 1 -5.7381155618251665 -9.642966443500033 4.229564047574978 -3 15 0
2457 1 -4.391065072661591 -8.859835651486861 3.4602468033223635 -5 -4 0
4639 1 -3.928317057772812 -8.624664815691641 4.451491947094101 -3 -2 0
7492 1 -2.569203799783289 -8.624098244029305 3.582149175855607 14 -1 0
5992 1 -1.3871091960265995 -9.984171100993523 3.315024744041326 4 1 0
4453 1 0.884466214176596 -9.084369129570918 3.6387077617352124 0 -2 0
5128 1 1.9889006656746737 -9.297874337905537 3.693488316008602 -6 -5 0
1545 1 2.6223665750358247 -9.91625138399738 4.342986176622881 -4 8 0
2176 1 3.257571844292443 -8.955758465628502 3.5368736290154046 8 2 0
66 1 5.163804280731584 -9.632636335752096 3.7038754657212682 4 -6 0
3500 1 5.9541787179103025 -8.957661109944203 3.5749711606030594 7 7 0
1027 1 6.972335156595833 -9.510301849841609 4.165824051518324 -14 8 0
1272 1 7.034351339500638 -9.139183107704149 3.198829492202278 12 -12 0
3733 1 7.966518300674043 -9.327365709358862 3.557156372146372 6 1 0
3249 1 9.924880822473654 -9.225147511749546 3.1393329013561875 4 14 0
1953 1 8.92299073744419 -8.94392919768838 4.377438991402452 2 2 0
3083 1 -8.841887024605583 -8.435043604139691 3.285212355975601 -4 -4 0
5192 1 -9.056558401354575 -7.54394475624712 3.7422730055064033 7 -6 0
7377 1 -9.76425797093979 -8.508461813613426 3.9855724730195092 3 10 0
5930 1 -7.451209130714227 -7.302069104706345 3.160538477871236 -7 5 0
3525 1 -7.372719617631042 -8.50049538828776 3.2566849220751153 -9 2 0
7573 1 -7.996927021801532 -7.6987707205663485 4.131775206877198 -5 -1 0
4661 1 -5.75164097776184 -8.280236529047764 4.24926768820688 -2 -8 0
6736 1 -6.731717839317638 -7.872741251502563 3.888216268843372 1 1 0
4473 1 -5.346849737061568 -7.889186901452211 3.060690133176485 0 2 0
555 1 -2.5822742283143976 -7.1753188215279 3.664963369307459 4 3 0
6749 1 -1.5990507158540312 -7.668556549647938 3.751729236091822 5 10 0
4562 1 -0.10149973261674566 -8.453030707130795 3.708503122444093 -3 1 0
1812 1 -1.093487033986605 -8.263021226280518 3.06370265012548 9 -10 0
1325 1 -0.2627885338156678 -7.4562454478631786 4.013704660538537 -13 2 0
6404 1 0.8281216502855232 -7.903314498548786 3.3796585385685862 5 -10 0
4143 1 1.8301422066210429 -8.157559059412307 3.7131768543974464 -8 -6 0
5209 1 1.7961176867441195 -7.279482745461174 4.355334174005527 3 -4 0
3212 1 2.3789669036870134 -8.563964120146663 4.422791775698064 -8 -3 0
7226 1 2.933965857482205 -7.814689710675226 3.798276068286696 -3 -3 0
4100 1 5.156000305940331 -7.876337332565403 4.190298474420995 3 -4 0
4186 1 6.311937527328458 -7.913486872347044 4.0538447579992285 4 -7 0
2541 1 7.470793674385457 -8.484649415479423 4.032471124208794 6 -2 0
3588 1 8.253807160472325 -7.843207296508328 3.24522240324214 -9 -3 0
4007 1 7.419701933264901 -7.454623224239636 3.833946564206212 1 1 0
7597 1 -9.85357279204231 -5.776851142627764 3.5639934294575517 -10 16 0
4219 1 -9.971767815894939 -6.8067532229782906 4.1288432795059 -2 -3 0
1100 1 -8.539471467755263 -6.177413393649943 3.743246829195889 0 -2 0
7961 1 -6.473822935035657 -6.788442320479335 3.731293210336342 6 0 0
9 1 -6.255794693869452 -5.808388790385074 3.757368657700102 0 14 0
1491 1 -5.06520688062937 -7.139177346953172 3.632033267792383 2 -15 0
6102 1 -4.680757244105855 -5.956088980570065 3.9817069022888965 1 -2 0
1383 1 -3.8663556568441106 -6.607656248095713 3.530283965718852 0 2 0
7684 1 -3.1351050868889376 -5.924107265480155 3.537504488663245 7 -11 0
4356 1 -2.0485641372878702 -6.436491040003218 4.2493588001226 0 2 0
402 1 -1.963100952148374 -6.5156241920423765 3.0813963745778294 0 7 0
5913 1 -1.0617700602848739 -5.824290028924573 4.05952606122506 3 3 0
3472 1 0.21857101613723748 -6.001177669898446 3.8845186417243256 10 -8 0
626 1 1.6753644691869667 -6.3009745438663005 3.4937328521194706 -6 12 0
3564 1 2.58503388712146 -6.824973501808731 3.664762952393956 1 4 0
6605 1 2.6663457671326043 -5.721812764490038 3.793825811277178 4 4 0
141 1 5.200632079792571 -6.969651370098949 3.1330736655964215 16 -1 0
2438 1 4.500618923287514 -7.083838984991858 4.304048424871906 3 -6 0
5188 1 5.393351518929019 -5.774518622184493 3.3673169975183983 10 1 0
1874 1 4.350934664590124 -5.998502417778622 3.7411912449362728 -9 -9 0
7761 1 6.65850293795602 -6.47193070309048 3.4415548762637913 2 4 0
6381 1 6.111650098351381 -6.059335195225139 4.207168713546447 -5 -9 0
3163 1 8.440734691424824 -6.572287720893608 3.127976413604185 -1 8 0
5278 1 7.457462476863735 -6.2706839230869 4.188642527157778 0 -3 0
1014 1 8.92791882598146 -6.747302836488024 4.0889552170177 8 3 0
623 1 -8.639333576011763 -5.130551757965974 3.7312022100609052 -1 1 0
910 1 -9.736489826163831 -4.7807205375216855 3.6789287992468367 5 -4 0
3774 1 -7.477012074268541 -5.452714187721234 4.2726714298473 6 -4 0
890 1 -6.78890910493916 -4.752753350291995 3.766915784012678 -1 3 0
6865 1 -5.333143120649372 -4.923363410940833 3.7637553512861857 -9 9 0
3320 1 -4.119999778537095 -4.830673054677855 3.5522333618170157 10 0 0
87 1 -2.5078457183643925 -4.493637039519924 3.1598978108378617 -7 7 0
944 1 -2.394445283879351 -5.141377649419909 4.115073066305527 -1 -4 0
4700 1 -1.5436053165638168 -4.63653954919897 4.489911663739102 0 0 0
1306 1 -1.329119833285983 -5.404356256132965 3.1982588666720506 -1 4 0
2259 1 -0.2361934114286235 -5.32452748366827 3.0383453231711486 -3 0 0
6380 1 -0.09998254725161576 -4.457447693042101 4.020976087906103 2 12 0
6740 1 0.9424096746443573 -5.175055868225195 3.9708544070676663 -4 8 0
6337 1 2.0418840808501004 -5.353084349899383 3.045064740924262 6 -3 0
690 1 1.5894328998056693 -4.46415528073945 3.565734715929827 -8 4 0
2409 1 3.9037681887508118 -4.967545367502623 4.321975146617724 -10 -7 0
5961 1 4.635136835601912 -4.71240920125584 3.3865440706944443 2 1 0
5286 1 6.828637082107517 -5.209585433068778 4.062315181837606 7 -8 0
4098 1 5.859099722442969 -4.907324123639537 3.9689117415844164 3 -2 0
4072 1 8.221323949226095 -4.9932875429475025 3.1385080156592617 1 9 0
1256 1 8.182628561757609 -5.087429977058283 4.147976667764868 0 9 0
6756 1 9.114128101660736 -5.703498086116172 3.656305447965866 -5 -4 0
7742 1 9.155663267891113 -4.582280265135016 3.5041091874100316 4 3 0
6320 1 -9.798645154641104 -3.7531472620211246 3.3327096600558597 5 -4 0
3859 1 -8.891668097725747 -3.391464126692883 3.9350382907430745 9 5 0
7061 1 -9.890132422932991 -2.9598873567463473 4.294605126015622 0 -6 0
1684 1 -7.674479035375245 -3.0159337661859054 3.9511634805073 -6 3 0
236 1 -6.326442485598209 -3.2508585488759785 3.24901510386671 5 -1 0
5335 1 -6.639726509068783 -2.9711559618229253 4.3709765015940665 -3 -1 0
7629 1 -5.3661562915122065 -3.6621742211168185 3.593119011272597 -7 -5 0
1685 1 -4.042839723724358 -3.4430281456999534 3.0422294884200554 -2 0 0
5576 1 -1.9886388854149144 -3.729970239257531 3.442006246262416 -5 -12 0
2200 1 -2.190033796933832 -3.559209742595803 4.415267448287412 -6 -2 0
1515 1 -0.18839422072461487 -3.1458204216521364 3.6061300405890884 5 10 0
5920 1 -0.8959275532479588 -3.7452333645180893 4.458041557609971 2 7 0
1203 1 0.0942763957855009 -4.249194694969522 3.0622050751768155 0 -5 0
5271 1 0.8129769332597186 -3.231834512024913 3.308392957962194 -3 -12 0
5946 1 0.5343894843638373 -3.1131842232791644 4.362392445202852 -1 -7 0
2267 1 2.2062638905733785 -3.1217883929108527 3.4191287536068544 3 -4 0
3763 1 2.5574878565426493 -2.9498974828230566 4.4759649844068266 -8 -13 0
7449 1 1.6134491847991277 -3.4562764568516378 4.193662979295369 3 1 0
3286 1 2.6952318219981124 -4.003764096733837 3.874378074768535 7 -1 0
5493 1 4.272204629037712 -4.1030708415471295 4.078641878193456 0 -3 0
7700 1 3.8124805833827584 -2.984079928285673 3.852914919832459 -1 1 0
3055 1 4.546716076115624 -3.760713563801822 3.027507718450685 -3 4 0
6521 1 6.805217545111881 -4.126308557296588 3.344503507846402 -2 -3 0
5140 1 6.540494700118285 -3.2968251670967312 3.93759574006156 -3 1 0
6917 1 8.195665359414742 -3.8998163478564427 3.0087559743785945 2 2 0
1190 1 7.6001070510899895 -3.1312298932795186 3.8838104553660022 -2 -10 0
3565 1 8.676363062431474 -3.634331000925809 3.927019082535146 -8 4 0
5726 1 -8.588949637306653 -2.3508835689137184 3.8070914611203444 5 -10 0
5904 1 -9.670036924643824 -2.027759411434172 3.589825001389516 -5 4 0
2750 1 -6.304720609849793 -1.626183671463374 3.002269846370638 2 5 0
7643 1 -6.253505093901313 -1.5690987351531738 3.9897899570446413 5 -2 0
867 1 -5.045470393906417 -2.837160081828739 3.0832254781934405 1 8 0
4149 1 -4.3720820190678245 -1.8442138863524415 3.4619270846676895 15 -10 0
1945 1 -5.691747698865868 -2.7002710055091583 3.8692775087800806 3 3 0
271 1 -3.7811034212856427 -2.469291672712079 3.0742806163350305 5 -3 0
7078 1 -3.122711306143848 -1.8563017282215701 4.323336136124719 -2 3 0
4539 1 -2.7620940791273445 -2.7705746055372136 3.381814966936914 2 -6 0
7546 1 -2.7029637489008036 -1.509894369242574 3.46289390380703 1 -3 0
7816 1 -1.6394409915032202 -2.5841033668000266 3.719065904513501 -5 12 0
344 1 -0.18278222504339367 -2.3288636725610936 4.142817934514197 1 6 0
7192 1 0.5449877171944024 -1.8151384275107967 3.4145091925415763 2 10 0
975 1 1.4479453371667883 -2.3792027803113296 3.379296682208882 0 -2 0
4271 1 2.1722534008369716 -1.4806408964947966 3.668395431521343 -11 -8 0
6980 1 3.7792202561753903 -1.8036833253646516 3.8884300810405614 0 -10 0
7018 1 5.310414188057338 -2.816391212063985 3.194762659119261 2 -1 0
2109 1 5.064928211657648 -1.7097776865025267 3.5265492234219056 0 -2 0
2997 1 5.698639252670778 -2.3150171380237032 4.4590692294950465 8 2 0
1863 1 6.2960969540867175 -2.1951403170228434 3.558850078980074 -3 2 0
1279 1 7.8532637019304365 -2.183009507230263 3.639445615848384 -8 11 0
704 1 8.56872648773295 -2.622426224889794 4.1721244329844245 6 5 0
4950 1 8.852313398463208 -2.1395554758665436 3.1400168107828814 2 3 0
3747 1 9.83769945715584 -2.7736224029887824 3.0951583116427788 1 -8 0
6569 1 9.406926099623707 -1.962384045602254 4.190577947310508 6 -6 0
6245 1 -8.755795746241159 -0.08981588416400431 4.036279373648745 -1 -1 0
6799 1 -7.996072585906932 -1.1948570037234314 3.4429710842990096 -10 9 0
1871 1 -7.348203927817716 -1.156348505484197 4.215741184197257 -3 4 0
6568 1 -6.101847238217943 -0.474146713979208 3.5818739962255863 0 -2 0
6459 1 -5.268421042587086 -1.0157445601887798 3.7165659892341214 -11 -2 0
5105 1 -4.98658146080347 -0.08738656047511778 4.054305822702628 1 -10 0
6004 1 -3.578800116661433 -0.7601176605737328 4.117183576482681 -2 6 0
7105 1 -3.9060703980368245 -0.5096960957602047 3.103219394993809 1 1 0
6570 1 -1.725482821734983 -1.254505712806582 3.7741374951701583 7 3 0
2532 1 -2.755125627000457 -0.34828169938955766 3.571616846307042 11 5 0
5014 1 -1.7203868673330538 -0.21797582853284178 3.8326960997561335 -13 0 0
3922 1 -0.5213653132740085 -1.3015406884628589 4.464182999943635 -3 -1 0
3460 1 -0.5325321339838937 -0.34270429759633264 4.038649332546502 6 5 0
4428 1 0.37751886546947744 -0.027915662241337198 3.690676341302027 0 0 0
4523 1 1.3609448995356164 -1.262007910607074 3.1247139538600996 0 5 0
2829 1 1.0160464743065847 -0.08536678735947975 4.478323330669531 8 7 0
7347 1 1.4558797783243698 -0.01842940270489172 3.072034906603526 4 0 0
5060 1 2.3055359000577367 -0.3170699490759526 3.9313639348470204 0 1 0
3671 1 3.025383936968449 -1.0461887394165483 4.3035535374554295 -3 -1 0
5560 1 3.4937197255411174 -0.365531376927659 3.501271761090719 7 -4 0
7729 1 4.148169934578206 -0.9683885802361647 4.336780746694562 3 -3 0
186 1 5.642583255064331 -0.5776291295650372 3.8599664815500283 -1 -3 0
4625 1 4.763282081239876 -0.5379746469186768 3.1300888913184064 -2 -6 0
1543 1 6.557396270554224 -1.036286215261239 3.874721545543462 -1 -1 0
198 1 8.242316902934148 -0.5656847385032413 3.0666178158067785 -5 11 0
156 1 7.467355191073284 -1.1360810071645553 3.3837280193714583 -9 2 0
4654 1 7.1747853378408495 -0.2755578574999801 4.230544773732534 -8 3 0
3432 1 8.148760135656225 -0.8522828680998465 4.188007497622264 -10 0 0
7531 1 9.94233502168527 -0.8257824140843352 4.162781906224795 -8 0 0
3813 1 9.139761663522671 -0.36872644833158175 3.625165222039016 0 6 0
6843 1 -9.98576939450194 -9.252089572348483 5.5231528919781505 -2 -7 0
1749 1 -8.695224255815383 -8.840842699834607 5.923523224011336 9 9 0
568 1 -7.398247491489743 -9.030598856581507 5.332765618604994 4 1 0
664 1 -6.311227961239858 -8.852097912183932 4.980661271537538 6 -2 0
6960 1 -6.800115796584615 -9.774348044219623 5.414412373851453 3 -2 0
5979 1 -4.969056144089987 -8.712683533953124 4.683225441095774 0 -2 0
936 1 -4.378097949203216 -9.721831672221876 4.77716564579162 -23 10 0
2908 1 -3.632270573902593 -9.387371917626878 5.257690525066122 -6 9 0
2033 1 -2.7465988080785095 -8.589927909257327 4.709754099112531 5 9 0
3026 1 -2.0296310032521325 -9.404778945099167 4.745026908048547 -2 12 0
3087 1 -1.0741370222487092 -9.37326990771563 5.4406478502736775 0 1 0
6029 1 -0.6787156713377875 -9.99206460067033 4.611932520839636 -5 -12 0
5592 1 0.04180833233246016 -9.083161584969032 4.784757872654276 -4 -5 0
645 1 0.9073395482723697 -8.838348281042363 5.793878076917396 3 7 0
7276 1 0.38983172204964256 -9.816923164112174 5.624516500537525 8 -4 0
6301 1 1.8577008592294406 -9.279338234048677 5.085200291893691 -12 0 0
2562 1 2.7832429132416907 -8.572284256269757 5.641455761228597 0 -5 0
1077 1 1.5166561566815362 -9.958147860072664 5.770984845312192 -4 -1 0
4600 1 3.1072686266255305 -9.536118062911196 5.2813466725069835 -5 -8 0
7519 1 3.7786538815877364 -9.388295741114412 4.5753501836530015 -15 10 0
5935 1 4.681861312597799 -8.79185153291141 4.724527835388692 -7 4 0
3895 1 5.3238806384459085 -9.590901379955485 5.440232995658252 -6 6 0
5585 1 5.830658166578788 -9.349172849854138 4.552144576438526 -7 4 0
6967 1 6.369115538277662 -9.467919483307377 5.405562412817644 -3 1 0
5974 1 8.132269977052678 -9.530290000106895 5.185739145557494 11 -1 0
2877 1 7.4230130410025446 -8.681262875440838 5.207628120661788 4 -1 0
7136 1 8.92732933113043 -8.86768963760402 5.563367295863754 -5 3 0
5321 1 -8.92474616567822 -7.871841458010407 4.76582742971819 -7 4 0
4892 1 -7.206618324235352 -7.758393772565603 5.905213835220483 -1 6 0
876 1 -7.937506287013505 -8.034454431422194 5.19088960789962 11 -4 0
295 1 -6.031440214012855 -7.827246929653794 5.34731338106644 -8 7 0
1807 1 -6.663914130989662 -7.2378830513474215 4.640479389028524 -10 -2 0
7346 1 -4.451713201022303 -8.253923210733308 5.720761703192047 -1 -1 0
7491 1 -5.049612108149234 -7.668972383155487 4.711239817257722 -3 1 0
2695 1 -3.9787482769363547 -7.288624909409076 4.523765210999154 6 3 0
3590 1 -2.9056032649870613 -7.174963162858388 5.697489725853973 4 -1 0
2156 1 -2.692883137872998 -7.497585913443231 4.5877979569034215 2 3 0
7236 1 -0.5426313528627822 -7.648247485264092 5.873393244013919 -11 2 0
4544 1 -0.6633921417275835 -8.43374256130383 4.667085870191278 10 1 0
7981 1 0.7095186009546753 -7.280988933108869 4.5759286528223475 2 -5 0
324 1 0.5496034535952331 -7.874411118180035 5.390887582765124 -5 1 0
4985 1 2.521528231370066 -7.425602597861648 5.107612062207593 12 7 0
4390 1 1.6703624462364666 -8.249794413727718 5.3096860332641125 3 -4 0
5466 1 3.5036077320711403 -8.25976132134102 4.794532254967896 7 -11 0
5740 1 3.787736563073597 -8.40311518434531 5.872461043994332 4 2 0
5975 1 5.172243327042222 -8.192019990131062 5.969160431507258 10 0 0
3508 1 5.200660739811751 -7.158256479759599 5.938484992306383 -4 7 0
2746 1 5.7761397724499375 -8.308687144137844 4.936994377468316 -7 2 0
4485 1 6.302373545245395 -8.412949366206767 5.921845069282947 -5 -10 0
6383 1 8.179261702590745 -7.191843900907652 4.563652316690753 4 1 0
5294 1 9.6981729338298 -8.101585076708444 5.001720666000575 7 0 0
2620 1 -9.745029081356247 -7.111391931295868 5.0083947872700865 5 -1 0
6058 1 -8.58999538634245 -6.913168795380748 4.684584607163808 -10 -15 0
5565 1 -9.065495179918898 -5.99247538873889 4.755844190261443 3 1 0
5733 1 -7.854597721955482 -6.932668821462904 5.683627992582564 -7 2 0
7665 1 -6.536539118555959 -6.031689007354229 4.900720097532107 0 8 0
6986 1 -5.939224642405941 -6.432943441835282 5.7413251601874835 -1 1 0
1553 1 -5.4675277754817655 -6.410158203661824 4.589506452697505 14 -2 0
10 1 -4.594050339974604 -6.300985793135848 5.626186175111915 -11 2 0
3355 1 -4.028156733675704 -7.122535658055538 5.53059317002976 -1 5 0
4112 1 -3.120749762719009 -6.341853102135972 4.864343059363008 3 3 0
4395 1 -1.5191592895741068 -7.061426747743661 4.916757882836877 2 4 0